# vtk DataFile Version 3.0
fluid_state
ASCII
DATASET RECTILINEAR_GRID
DIMENSIONS 64 256 1 
X_COORDINATES 64 float
0 1 2 3 4 5 6 7 8 9 10 11 12 13 14 15 16 17 18 19 20 21 22 23 24 25 26 27 28 29 30 31 32 33 34 35 36 37 38 39 40 41 42 43 44 45 46 47 48 49 50 51 52 53 54 55 56 57 58 59 60 61 62 63 
Y_COORDINATES 256 float
0 1 2 3 4 5 6 7 8 9 10 11 12 13 14 15 16 17 18 19 20 21 22 23 24 25 26 27 28 29 30 31 32 33 34 35 36 37 38 39 40 41 42 43 44 45 46 47 48 49 50 51 52 53 54 55 56 57 58 59 60 61 62 63 64 65 66 67 68 69 70 71 72 73 74 75 76 77 78 79 80 81 82 83 84 85 86 87 88 89 90 91 92 93 94 95 96 97 98 99 100 101 102 103 104 105 106 107 108 109 110 111 112 113 114 115 116 117 118 119 120 121 122 123 124 125 126 127 128 129 130 131 132 133 134 135 136 137 138 139 140 141 142 143 144 145 146 147 148 149 150 151 152 153 154 155 156 157 158 159 160 161 162 163 164 165 166 167 168 169 170 171 172 173 174 175 176 177 178 179 180 181 182 183 184 185 186 187 188 189 190 191 192 193 194 195 196 197 198 199 200 201 202 203 204 205 206 207 208 209 210 211 212 213 214 215 216 217 218 219 220 221 222 223 224 225 226 227 228 229 230 231 232 233 234 235 236 237 238 239 240 241 242 243 244 245 246 247 248 249 250 251 252 253 254 255 
Z_COORDINATES 1 float
0 
POINT_DATA 16384
SCALARS phase float 1
LOOKUP_TABLE default
0 
0 
0 
0 
0 
0 
0 
0 
0 
0 
0 
0 
0 
0 
0 
0 
0 
0 
0 
0 
0 
0 
0 
0 
0 
0 
0 
0 
0 
0 
0 
0 
0 
0 
0 
0 
0 
0 
0 
0 
0 
0 
0 
0 
0 
0 
0 
0 
0 
0 
0 
0 
0 
0 
0 
0 
0 
0 
0 
0 
0 
0 
0 
0 
0 
0 
0 
0 
0 
0 
0 
0 
0 
0 
0 
0 
0 
0 
0 
0 
0 
0 
0 
0 
0 
0 
0 
0 
0 
0 
0 
0 
0 
0 
0 
0 
0 
0 
0 
0 
0 
0 
0 
0 
0 
0 
0 
0 
0 
0 
0 
0 
0 
0 
0 
0 
0 
0 
0 
0 
0 
0 
0 
0 
0 
0 
0 
0 
0 
0 
0 
0 
0 
0 
0 
0 
0 
0 
0 
0 
0 
0 
0 
0 
0 
0 
0 
0 
0 
0 
0 
0 
0 
0 
0 
0 
0 
0 
0 
0 
0 
0 
0 
0 
0 
0 
0 
0 
0 
0 
0 
0 
0 
0 
0 
0 
0 
0 
0 
0 
0 
0 
0 
0 
0 
0 
0 
0 
0 
0 
0 
0 
0 
0 
0 
0 
0 
0 
0 
0 
0 
0 
0 
0 
0 
0 
0 
0 
0 
0 
0 
0 
0 
0 
0 
0 
0 
0 
0 
0 
0 
0 
0 
0 
0 
0 
0 
0 
0 
0 
0 
0 
0 
0 
0 
0 
0 
0 
0 
0 
0 
0 
0 
0 
0 
0 
0 
0 
0 
0 
0 
0 
0 
0 
0 
0 
0 
0 
0 
0 
0 
0 
0 
0 
0 
0 
0 
0 
0 
0 
0 
0 
0 
0 
0 
0 
0 
0 
0 
0 
0 
0 
0 
0 
0 
0 
0 
0 
0 
0 
0 
0 
0 
0 
0 
0 
0 
0 
0 
0 
0 
0 
0 
0 
0 
0 
0 
0 
0 
0 
0 
0 
0 
0 
0 
0 
0 
0 
0 
0 
0 
0 
0 
0 
0 
0 
0 
0 
0 
0 
0 
0 
0 
0 
0 
0 
0 
0 
0 
0 
0 
0 
0 
0 
0 
0 
0 
0 
0 
0 
0 
0 
0 
0 
0 
0 
0 
0 
0 
0 
0 
0 
0 
0 
0 
0 
0 
0 
0 
0 
0 
0 
0 
0 
0 
0 
0 
0 
0 
0 
0 
0 
0 
0 
0 
0 
0 
0 
0 
0 
0 
0 
0 
0 
0 
0 
0 
0 
0 
0 
0 
0 
0 
0 
0 
0 
0 
0 
0 
0 
0 
0 
0 
0 
0 
0 
0 
0 
0 
0 
0 
0 
0 
0 
0 
0 
0 
0 
0 
0 
0 
0 
0 
0 
0 
0 
0 
0 
0 
0 
0 
0 
0 
0 
0 
0 
0 
0 
0 
0 
0 
0 
0 
0 
0 
0 
0 
0 
0 
0 
0 
0 
0 
0 
0 
0 
0 
0 
0 
0 
0 
0 
0 
0 
0 
0 
0 
0 
0 
0 
0 
0 
0 
0 
0 
0 
0 
0 
0 
0 
0 
0 
0 
0 
0 
0 
0 
0 
0 
0 
0 
0 
0 
0 
0 
0 
0 
0 
0 
0 
0 
0 
0 
0 
0 
0 
0 
0 
0 
0 
0 
0 
0 
0 
0 
0 
0 
0 
0 
0 
0 
0 
0 
0 
0 
0 
0 
0 
0 
0 
0 
0 
0 
0 
0 
0 
0 
0 
0 
0 
0 
0 
0 
0 
0 
0 
0 
0 
0 
0 
0 
0 
0 
0 
0 
0 
0 
0 
0 
0 
0 
0 
0 
0 
0 
0 
0 
0 
0 
0 
0 
0 
0 
0 
0 
0 
0 
0 
0 
0 
0 
0 
0 
0 
0 
0 
0 
0 
0 
0 
0 
0 
0 
0 
0 
0 
0 
0 
0 
0 
0 
0 
0 
0 
0 
0 
0 
0 
0 
0 
0 
0 
0 
0 
0 
0 
0 
0 
0 
0 
0 
0 
0 
0 
0 
0 
0 
0 
0 
0 
0 
0 
0 
0 
0 
0 
0 
0 
0 
0 
0 
0 
0 
0 
0 
0 
0 
0 
0 
0 
0 
0 
0 
0 
0 
0 
0 
0 
0 
0 
0 
0 
0 
0 
0 
0 
0 
0 
0 
0 
0 
0 
0 
0 
0 
0 
0 
0 
0 
0 
0 
0 
0 
0 
0 
0 
0 
0 
0 
0 
0 
0 
0 
0 
0 
0 
0 
0 
0 
0 
0 
0 
0 
0 
0 
0 
0 
0 
0 
0 
0 
1.52451e-12
0 
1.01708e-12
0 
0 
0 
0 
0 
0 
0 
0 
0 
0 
0 
0 
0 
0 
0 
0 
0 
0 
0 
0 
0 
0 
0 
0 
1.01727e-12
0 
1.52454e-12
0 
0 
0 
0 
0 
0 
0 
0 
0 
0 
0 
0 
0 
0 
0 
0 
0 
0 
0 
0 
0 
0 
0 
0 
0 
0 
0 
0 
1.18997e-12
0 
1.81985e-12
0 
1.14146e-12
1.1037e-12
0 
2.51457e-12
0 
0 
0 
0 
0 
0 
0 
0 
0 
0 
0 
0 
0 
0 
0 
0 
0 
0 
0 
0 
0 
0 
0 
0 
0 
0 
2.5148e-12
0 
1.10349e-12
1.14176e-12
0 
1.82014e-12
0 
1.19009e-12
0 
0 
0 
0 
0 
0 
0 
0 
0 
0 
0 
0 
0 
0 
0 
0 
0 
0 
0 
0 
0 
1.20293e-12
0 
2.97112e-12
0 
3.42374e-12
0 
0 
3.20714e-12
0 
3.05364e-12
0 
0 
1.29728e-12
0 
0 
0 
0 
0 
0 
0 
0 
0 
0 
0 
0 
0 
0 
0 
0 
0 
0 
1.29744e-12
0 
0 
3.05415e-12
0 
3.20707e-12
0 
0 
3.42437e-12
0 
2.97141e-12
0 
1.20302e-12
0 
0 
0 
0 
0 
0 
0 
0 
0 
0 
0 
0 
0 
0 
0 
0 
0 
0 
0 
0 
0 
3.42476e-12
0 
6.54351e-12
0 
5.53589e-12
0 
0 
6.28884e-12
0 
2.20041e-12
0 
0 
1.58987e-12
0 
0 
0 
0 
0 
0 
0 
0 
0 
0 
0 
0 
0 
0 
0 
0 
1.5902e-12
0 
0 
2.20123e-12
0 
6.28924e-12
0 
0 
5.53694e-12
0 
6.54431e-12
0 
3.42496e-12
0 
0 
0 
0 
0 
0 
0 
0 
0 
0 
0 
0 
0 
0 
0 
0 
0 
0 
0 
0 
0 
2.74809e-12
0 
8.89871e-12
0 
1.25555e-11
0 
6.51066e-12
5.56358e-12
0 
8.73308e-12
0 
0 
3.73369e-12
0 
0 
0 
0 
0 
0 
0 
0 
0 
0 
0 
0 
0 
0 
0 
0 
0 
0 
3.73382e-12
0 
0 
8.73431e-12
0 
5.56287e-12
6.5123e-12
0 
1.25574e-11
0 
8.89924e-12
0 
2.74819e-12
0 
0 
0 
0 
0 
0 
0 
0 
0 
0 
0 
0 
0 
0 
0 
0 
0 
0 
0 
1.61799e-12
0 
8.20316e-12
0 
2.01639e-11
0 
2.12445e-11
0 
1.92609e-12
1.43777e-11
0 
7.78318e-12
1.66408e-12
0 
5.05861e-12
0 
0 
1.21242e-12
0 
0 
0 
0 
0 
0 
0 
0 
0 
0 
1.21235e-12
0 
0 
5.05913e-12
0 
1.66275e-12
7.78549e-12
0 
1.4378e-11
1.92825e-12
0 
2.12478e-11
0 
2.01656e-11
0 
8.2033e-12
0 
1.618e-12
0 
0 
0 
0 
0 
0 
0 
0 
0 
0 
0 
0 
0 
0 
0 
0 
0 
0 
0 
4.90711e-12
0 
2.25596e-11
0 
3.99547e-11
0 
2.83776e-11
5.18299e-12
0 
2.35681e-11
0 
0 
9.88668e-12
0 
3.17272e-12
0 
0 
1.37821e-12
0 
0 
0 
0 
0 
0 
0 
0 
1.37873e-12
0 
0 
3.17372e-12
0 
9.88614e-12
0 
0 
2.35707e-11
0 
5.17986e-12
2.83829e-11
0 
3.99593e-11
0 
2.256e-11
0 
4.90707e-12
0 
0 
0 
0 
0 
0 
0 
0 
0 
0 
0 
0 
0 
0 
0 
0 
0 
0 
0 
2.08392e-12
0 
1.58073e-11
0 
5.35229e-11
0 
7.12593e-11
0 
2.09247e-11
2.90445e-11
0 
2.50688e-11
1.29602e-12
0 
1.46752e-11
0 
0 
3.2628e-12
0 
0 
0 
0 
0 
0 
0 
0 
0 
0 
3.26308e-12
0 
0 
1.46754e-11
0 
1.29173e-12
2.50747e-11
0 
2.90432e-11
2.09323e-11
0 
7.12681e-11
0 
5.35257e-11
0 
1.58067e-11
0 
2.08396e-12
0 
0 
0 
0 
0 
0 
0 
0 
0 
0 
0 
0 
0 
0 
0 
0 
0 
0 
0 
6.2839e-12
0 
4.85423e-11
0 
1.11216e-10
0 
1.03321e-10
0 
0 
6.01922e-11
0 
9.95473e-12
2.35117e-11
0 
1.09482e-11
0 
0 
3.90526e-12
0 
0 
0 
0 
0 
0 
0 
0 
3.90726e-12
0 
0 
1.09499e-11
0 
2.3508e-11
9.96329e-12
0 
6.01966e-11
0 
0 
1.03337e-10
0 
1.11225e-10
0 
4.85409e-11
0 
6.28371e-12
0 
0 
0 
0 
0 
0 
0 
0 
0 
0 
0 
0 
0 
0 
0 
0 
0 
0 
0 
1.54788e-12
0 
2.53297e-11
0 
1.23685e-10
0 
2.12284e-10
0 
9.78155e-11
4.83304e-11
0 
7.54689e-11
0 
0 
3.95631e-11
0 
0 
8.27852e-12
0 
1.8218e-12
0 
0 
0 
0 
0 
0 
1.82449e-12
0 
8.28017e-12
0 
0 
3.95612e-11
0 
0 
7.54831e-11
0 
4.83217e-11
9.78393e-11
0 
2.12303e-10
0 
1.23687e-10
0 
2.53271e-11
0 
1.54784e-12
0 
0 
0 
0 
0 
0 
0 
0 
0 
0 
0 
0 
0 
0 
0 
0 
0 
0 
0 
5.09697e-12
0 
9.35476e-11
0 
2.72894e-10
0 
3.36943e-10
0 
1.09122e-11
1.45122e-10
0 
4.77888e-11
4.99897e-11
0 
3.44917e-11
0 
0 
1.04215e-11
0 
0 
0 
0 
0 
0 
0 
0 
1.04273e-11
0 
0 
3.44938e-11
0 
4.99757e-11
4.78138e-11
0 
1.45126e-10
1.09363e-11
0 
3.36985e-10
0 
2.72906e-10
0 
9.35412e-11
0 
5.09654e-12
0 
0 
0 
0 
0 
0 
0 
0 
0 
0 
0 
0 
0 
0 
0 
0 
1.83899e-12
0 
0 
0 
0 
4.02375e-11
0 
2.57653e-10
0 
5.66376e-10
0 
3.66499e-10
4.49254e-11
0 
2.1756e-10
0 
0 
1.01855e-10
0 
8.43725e-12
1.93511e-11
0 
4.85297e-12
0 
0 
0 
0 
0 
0 
4.86012e-12
0 
1.93564e-11
8.43903e-12
0 
1.01844e-10
0 
0 
2.17593e-10
0 
4.489e-11
3.66567e-10
0 
5.66408e-10
0 
2.57651e-10
0 
4.02308e-11
0 
0 
0 
0 
1.8388e-12
0 
0 
0 
0 
0 
0 
0 
0 
0 
0 
2.11317e-12
1.96362e-12
0 
4.12548e-12
0 
0 
0 
0 
1.76829e-10
0 
5.85953e-10
0 
1.01527e-09
0 
1.59605e-10
3.25576e-10
0 
1.84929e-10
9.34039e-11
0 
1.0242e-10
0 
0 
2.61683e-11
0 
0 
2.03951e-12
0 
0 
2.0404e-12
0 
0 
2.61826e-11
0 
0 
1.02421e-10
0 
9.33599e-11
1.84997e-10
0 
3.25569e-10
1.59681e-10
0 
1.01536e-09
0 
5.85955e-10
0 
1.76813e-10
0 
0 
0 
0 
4.1249e-12
0 
1.96329e-12
2.11332e-12
0 
0 
0 
0 
0 
0 
0 
1.88434e-12
1.96743e-12
4.04313e-12
3.65733e-12
0 
7.61557e-12
0 
0 
5.74599e-11
0 
4.76664e-10
0 
1.35436e-09
0 
1.22226e-09
0 
0 
6.06586e-10
0 
0 
2.53936e-10
0 
3.96348e-11
4.15949e-11
0 
1.24506e-11
0 
0 
0 
0 
0 
0 
1.24681e-11
0 
4.16083e-11
3.9638e-11
0 
2.53894e-10
0 
0 
6.06657e-10
0 
0 
1.22245e-09
0 
1.35436e-09
0 
4.7664e-10
0 
5.7438e-11
0 
0 
7.61521e-12
0 
3.65662e-12
4.04489e-12
1.96761e-12
1.88387e-12
0 
0 
0 
0 
0 
0 
2.34784e-12
9.0484e-12
0 
0 
6.8893e-12
0 
1.95918e-11
0 
3.28643e-11
2.95729e-10
0 
9.9363e-10
0 
2.79032e-09
0 
7.78524e-10
6.56648e-10
0 
6.35263e-10
1.39882e-10
0 
2.92325e-10
0 
0 
6.31715e-11
0 
0 
6.4065e-12
0 
0 
6.40872e-12
0 
0 
6.32028e-11
0 
0 
2.92314e-10
0 
1.39756e-10
6.35427e-10
0 
6.56579e-10
7.78751e-10
0 
2.79045e-09
0 
9.93526e-10
0 
2.95685e-10
3.28946e-11
0 
1.95957e-11
0 
6.88598e-12
0 
0 
9.04949e-12
2.34826e-12
0 
0 
0 
0 
0 
2.49163e-12
1.02857e-11
0 
1.04285e-11
0 
0 
1.90179e-11
0 
1.10051e-10
1.7176e-11
8.72499e-11
7.02276e-10
0 
2.7811e-09
0 
3.71065e-09
0 
0 
1.62401e-09
0 
1.36613e-10
6.1323e-10
0 
1.48831e-10
8.11931e-11
0 
3.14354e-11
0 
0 
2.92674e-12
2.91237e-12
0 
0 
3.14759e-11
0 
8.12206e-11
1.48838e-10
0 
6.13086e-10
1.36839e-10
0 
1.62413e-09
0 
0 
3.71105e-09
0 
2.78089e-09
0 
7.02204e-10
8.73469e-11
1.71118e-11
1.10077e-10
0 
1.90127e-11
0 
0 
1.04327e-11
0 
1.02851e-11
2.49202e-12
0 
0 
0 
1.4447e-12
7.18826e-12
0 
2.6805e-11
0 
0 
0 
0 
1.09002e-10
0 
4.93136e-10
2.02222e-10
0 
1.10812e-09
0 
6.69647e-09
0 
2.96587e-09
1.06469e-09
0 
2.0018e-09
8.87526e-11
0 
8.11832e-10
0 
0 
1.48989e-10
0 
0 
1.7078e-11
0 
0 
1.70834e-11
0 
0 
1.4905e-10
0 
0 
8.11781e-10
0 
8.83985e-11
2.00216e-09
0 
1.06436e-09
2.96645e-09
0 
6.69661e-09
0 
1.10797e-09
0 
2.02085e-10
4.93254e-10
0 
1.09001e-10
0 
0 
0 
0 
2.68073e-11
0 
7.18578e-12
1.44643e-12
0 
0 
2.44759e-12
5.71827e-12
3.43751e-11
0 
2.99097e-11
0 
0 
3.78386e-11
0 
6.29612e-10
0 
1.02952e-09
3.89057e-10
0 
4.32397e-09
0 
1.01864e-08
0 
2.36122e-10
4.10894e-09
0 
8.58216e-10
1.42146e-09
0 
5.06287e-10
1.33919e-10
0 
8.03233e-11
0 
0 
1.00868e-11
1.00529e-11
0 
0 
8.04118e-11
0 
1.33958e-10
5.06312e-10
0 
1.42101e-09
8.58851e-10
0 
4.109e-09
2.36927e-10
0 
1.01875e-08
0 
4.32329e-09
0 
3.88857e-10
1.02982e-09
0 
6.29689e-10
0 
3.78143e-11
0 
0 
2.99158e-11
0 
3.4374e-11
5.7219e-12
2.44759e-12
0 
0 
1.00331e-11
3.10629e-11
0 
6.49091e-11
0 
0 
0 
0 
3.96125e-10
0 
2.1308e-09
0 
1.1523e-09
3.57324e-10
0 
1.43471e-08
0 
1.03609e-08
8.87078e-10
0 
5.95788e-09
0 
0 
2.21299e-09
0 
0 
3.45887e-10
0 
0 
3.93563e-11
0 
0 
3.93698e-11
0 
0 
3.4599e-10
0 
0 
2.21281e-09
0 
0 
5.95864e-09
0 
8.85822e-10
1.03626e-08
0 
1.43464e-08
0 
3.57141e-10
1.15274e-09
0 
2.13114e-09
0 
3.96109e-10
0 
0 
0 
0 
6.49098e-11
0 
3.10564e-11
1.00397e-11
0 
7.81786e-12
1.87699e-11
0 
7.36202e-11
0 
5.88332e-11
0 
0 
2.9794e-11
0 
2.5735e-09
0 
3.80674e-09
0 
0 
6.75739e-09
0 
2.59556e-08
0 
3.7724e-09
9.91171e-09
0 
3.74336e-09
3.11225e-09
0 
1.6058e-09
1.34085e-10
0 
2.2008e-10
0 
0 
4.28922e-11
4.27996e-11
0 
0 
2.2027e-10
0 
1.34089e-10
1.60591e-09
0 
3.11093e-09
3.74514e-09
0 
9.91123e-09
3.77494e-09
0 
2.59574e-08
0 
6.75513e-09
0 
0 
3.80745e-09
0 
2.57376e-09
0 
2.97328e-11
0 
0 
5.88352e-11
0 
7.36126e-11
0 
1.87681e-11
7.81539e-12
1.10038e-11
2.01227e-11
6.28382e-11
0 
1.14522e-10
0 
0 
0 
0 
2.09149e-09
0 
6.10917e-09
0 
4.57843e-09
0 
0 
2.988e-08
0 
3.16921e-08
0 
0 
1.73209e-08
0 
0 
5.92973e-09
0 
0 
8.20604e-10
0 
0 
6.38687e-11
5.81924e-11
5.80201e-11
6.39091e-11
0 
0 
8.20762e-10
0 
0 
5.92915e-09
0 
0 
1.73226e-08
0 
0 
3.16963e-08
0 
2.98783e-08
0 
0 
4.57965e-09
0 
6.10995e-09
0 
2.09161e-09
0 
0 
0 
0 
1.1451e-10
0 
6.28184e-11
2.01436e-11
1.09861e-11
4.48681e-11
3.75483e-11
0 
1.17505e-10
0 
7.77418e-11
0 
0 
1.18122e-09
0 
7.28409e-09
0 
1.02008e-08
0 
4.96621e-09
8.16899e-09
0 
6.43398e-08
0 
1.91947e-08
2.24496e-08
0 
1.43708e-08
6.28013e-09
0 
4.73491e-09
0 
0 
6.79371e-10
0 
0 
1.7256e-10
1.72289e-10
0 
0 
6.79779e-10
0 
0 
4.73535e-09
0 
6.2764e-09
1.43755e-08
0 
2.24468e-08
1.92022e-08
0 
6.43429e-08
0 
8.16498e-09
4.96851e-09
0 
1.02022e-08
0 
7.28476e-09
0 
1.18119e-09
0 
0 
7.77283e-11
0 
1.17482e-10
0 
3.75364e-11
4.48768e-11
4.88913e-11
3.48381e-11
7.32808e-11
0 
1.48892e-10
0 
0 
2.21978e-11
0 
8.20484e-09
0 
1.45058e-08
0 
1.55101e-08
0 
1.01032e-08
5.77671e-08
0 
9.12458e-08
0 
0 
4.96584e-08
0 
0 
1.55654e-08
0 
0 
1.83546e-09
0 
3.0505e-11
2.49433e-12
4.02435e-10
4.02263e-10
2.56468e-12
3.08995e-11
0 
1.83549e-09
0 
0 
1.55635e-08
0 
0 
4.96616e-08
0 
0 
9.12543e-08
0 
5.77615e-08
1.01084e-08
0 
1.55131e-08
0 
1.4507e-08
0 
8.20536e-09
0 
2.21018e-11
0 
0 
1.48865e-10
0 
7.32351e-11
3.48883e-11
4.88342e-11
7.4982e-11
0 
0 
9.46537e-11
0 
0 
0 
0 
8.38919e-09
0 
1.682e-08
0 
2.36296e-08
0 
3.06842e-08
0 
0 
1.50172e-07
0 
7.7062e-08
4.61833e-08
0 
5.06557e-08
1.14144e-08
0 
1.29827e-08
0 
0 
1.51858e-09
0 
2.4701e-10
7.57381e-10
7.56464e-10
2.47709e-10
0 
1.5191e-09
0 
0 
1.2984e-08
0 
1.14044e-08
5.0667e-08
0 
4.61729e-08
7.70819e-08
0 
1.50173e-07
0 
0 
3.06911e-08
0 
2.36311e-08
0 
1.68206e-08
0 
8.38937e-09
0 
0 
0 
0 
9.46022e-11
0 
0 
7.50237e-11
0 
7.13681e-11
0 
0 
0 
0 
0 
7.25827e-09
0 
1.72719e-08
0 
2.15194e-08
0 
4.63146e-08
0 
7.50469e-08
8.79419e-08
0 
2.53495e-07
0 
0 
1.39028e-07
0 
1.30737e-09
3.97446e-08
0 
0 
2.48154e-09
0 
0 
0 
2.15424e-09
2.15468e-09
0 
0 
0 
2.48029e-09
0 
0 
3.97381e-08
1.32218e-09
0 
1.39031e-07
0 
0 
2.53514e-07
0 
8.79214e-08
7.5065e-08
0 
4.63191e-08
0 
2.15197e-08
0 
1.7272e-08
0 
7.2581e-09
0 
0 
0 
0 
0 
7.14788e-11
0 
8.65017e-11
0 
6.30445e-12
0 
0 
0 
4.75214e-09
0 
1.68579e-08
0 
1.74613e-08
0 
3.86228e-08
0 
1.24136e-07
0 
7.88559e-08
3.19792e-07
0 
2.73721e-07
8.1915e-08
0 
1.64877e-07
1.68579e-08
0 
3.21672e-08
0 
0 
1.17832e-09
0 
1.20973e-09
3.47279e-09
3.46997e-09
1.21213e-09
0 
1.17845e-09
0 
0 
3.21697e-08
0 
1.68307e-08
1.64901e-07
0 
8.18793e-08
2.73771e-07
0 
3.19777e-07
7.88985e-08
0 
1.24151e-07
0 
3.86232e-08
0 
1.74604e-08
0 
1.68578e-08
0 
4.75164e-09
0 
0 
0 
6.47714e-12
0 
8.658e-11
0 
5.38934e-10
0 
0 
0 
1.50297e-09
0 
1.64243e-08
0 
1.26605e-08
0 
2.14381e-08
0 
1.00617e-07
0 
3.36439e-07
4.03101e-08
0 
6.801e-07
0 
4.64554e-08
3.76112e-07
0 
2.89153e-08
9.92394e-08
0 
0 
1.57452e-09
0 
0 
0 
6.13802e-09
6.14072e-09
0 
0 
0 
1.56831e-09
0 
0 
9.92142e-08
2.89566e-08
0 
3.76099e-07
4.65244e-08
0 
6.80129e-07
0 
4.02442e-08
3.36494e-07
0 
1.00617e-07
0 
2.14362e-08
0 
1.26601e-08
0 
1.64239e-08
0 
1.50251e-09
0 
0 
0 
5.39031e-10
0 
3.69875e-10
0 
5.47334e-10
0 
0 
3.33124e-09
1.36293e-08
0 
1.2886e-08
0 
1.92346e-09
0 
4.42683e-08
0 
3.70209e-07
0 
5.04794e-07
5.76951e-07
0 
8.83301e-07
5.87665e-08
0 
5.44074e-07
8.51435e-09
0 
7.42867e-08
0 
0 
0 
0 
0 
2.03519e-09
2.02763e-09
0 
0 
0 
0 
0 
7.42888e-08
0 
8.44028e-09
5.44122e-07
0 
5.86532e-08
8.83419e-07
0 
5.76865e-07
5.04934e-07
0 
3.70232e-07
0 
4.42623e-08
0 
1.91969e-09
0 
1.28857e-08
0 
1.36283e-08
3.33182e-09
0 
0 
5.47564e-10
0 
3.69865e-10
0 
8.44507e-10
0 
0 
5.61645e-09
5.96429e-09
7.44716e-09
1.45601e-08
0 
0 
0 
0 
0 
1.31106e-07
0 
1.27457e-06
0 
0 
1.69603e-06
0 
3.59307e-07
9.26573e-07
0 
2.74816e-07
3.05137e-07
0 
0 
5.80625e-09
0 
0 
0 
0 
0 
0 
0 
0 
5.78523e-09
0 
0 
3.05044e-07
2.7497e-07
0 
9.26452e-07
3.59524e-07
0 
1.69602e-06
0 
0 
1.27474e-06
0 
1.31087e-07
0 
0 
0 
0 
0 
1.45591e-08
7.4506e-09
5.96269e-09
5.61656e-09
0 
0 
8.44543e-10
0 
1.18441e-10
0 
0 
2.65032e-09
0 
2.47699e-08
9.8341e-09
3.02894e-09
0 
8.9427e-10
0 
0 
0 
0 
1.13604e-06
0 
2.26508e-06
6.55271e-07
0 
2.61651e-06
0 
0 
1.6686e-06
8.5257e-09
0 
3.29115e-07
0 
0 
0 
0 
0 
0 
0 
0 
0 
0 
0 
0 
3.29075e-07
0 
8.30767e-09
1.66864e-06
0 
0 
2.61678e-06
0 
6.54943e-07
2.2655e-06
0 
1.13609e-06
0 
0 
0 
0 
8.93451e-10
0 
3.03244e-09
9.83171e-09
2.47739e-08
0 
2.65002e-09
0 
0 
1.184e-10
0 
1.38923e-11
0 
0 
3.9606e-08
0 
2.22453e-08
0 
0 
0 
0 
0 
0 
2.8652e-07
0 
4.39732e-06
0 
1.11815e-06
3.30128e-06
0 
1.57449e-06
1.41557e-06
0 
1.25955e-06
1.11453e-06
0 
2.24913e-08
5.29896e-08
0 
0 
0 
0 
0 
0 
0 
0 
5.29347e-08
2.24592e-08
0 
1.11439e-06
1.25991e-06
0 
1.41506e-06
1.5752e-06
0 
3.30095e-06
1.11875e-06
0 
4.39764e-06
0 
2.86496e-07
0 
0 
0 
0 
0 
0 
2.2252e-08
0 
3.96086e-08
0 
0 
1.35082e-11
0 
0 
0 
0 
3.64405e-08
0 
5.99632e-08
0 
0 
0 
0 
0 
0 
0 
0 
4.74525e-06
0 
6.68027e-06
0 
0 
6.09485e-06
0 
0 
3.39236e-06
0 
0 
1.69599e-06
3.70025e-07
0 
0 
0 
0 
0 
0 
0 
0 
0 
0 
3.69843e-07
1.69607e-06
0 
0 
3.39223e-06
0 
0 
6.09508e-06
0 
0 
6.68103e-06
0 
4.74545e-06
0 
0 
0 
0 
0 
0 
0 
0 
5.9972e-08
0 
3.64425e-08
0 
0 
0 
0 
0 
1.76783e-08
0 
1.08004e-07
0 
0 
0 
0 
0 
0 
0 
0 
3.56428e-06
0 
1.09713e-05
0 
3.13602e-06
2.80731e-06
0 
3.96993e-06
0 
0 
2.18161e-06
2.00858e-06
2.73863e-08
1.69038e-06
8.00218e-07
0 
0 
0 
0 
0 
0 
0 
0 
7.99677e-07
1.69059e-06
2.79085e-08
2.00829e-06
2.18256e-06
0 
0 
3.97145e-06
0 
2.80602e-06
3.13734e-06
0 
1.09719e-05
0 
3.5644e-06
0 
0 
0 
0 
0 
0 
0 
0 
1.08012e-07
0 
1.76786e-08
0 
0 
0 
0 
0 
1.38558e-07
0 
6.74368e-08
0 
0 
0 
0 
0 
0 
1.93109e-06
0 
1.24328e-05
0 
1.40551e-05
0 
0 
8.17487e-06
0 
0 
3.91505e-06
0 
0 
4.50815e-06
2.90506e-06
2.11243e-06
9.23112e-07
2.78062e-07
2.14224e-07
2.96624e-07
2.9665e-07
2.14169e-07
2.78028e-07
9.22596e-07
2.1124e-06
2.90493e-06
4.5087e-06
0 
0 
3.91469e-06
0 
0 
8.17421e-06
0 
0 
1.40564e-05
0 
1.24331e-05
0 
1.93109e-06
0 
0 
0 
0 
0 
0 
6.74549e-08
0 
1.38569e-07
0 
0 
0 
0 
0 
1.16714e-07
0 
1.94704e-07
0 
0 
0 
0 
0 
0 
4.55256e-07
0 
1.29854e-05
0 
2.10983e-05
0 
8.53302e-06
0 
0 
1.35891e-06
0 
0 
0 
0 
0 
2.59187e-06
4.19096e-06
3.81334e-06
3.30696e-06
3.66455e-06
4.01684e-06
4.01685e-06
3.66473e-06
3.30701e-06
3.81345e-06
4.19085e-06
2.59323e-06
0 
0 
0 
0 
0 
1.36051e-06
0 
0 
8.53542e-06
0 
2.10988e-05
0 
1.29853e-05
0 
4.55223e-07
0 
0 
0 
0 
0 
0 
1.94727e-07
0 
1.1672e-07
0 
0 
0 
5.35976e-08
2.29727e-08
2.96093e-07
0 
0 
0 
0 
0 
0 
0 
6.93542e-08
1.29304e-05
0 
2.53191e-05
0 
2.2466e-05
0 
0 
0 
0 
0 
0 
0 
0 
0 
0 
9.07757e-07
7.48661e-06
1.43243e-05
2.06254e-05
2.42445e-05
2.42451e-05
2.06266e-05
1.43263e-05
7.48848e-06
9.09638e-07
0 
0 
0 
0 
0 
0 
0 
0 
0 
0 
2.24669e-05
0 
2.53186e-05
0 
1.29303e-05
6.95548e-08
0 
0 
0 
0 
0 
0 
0 
2.96126e-07
2.29663e-08
5.35968e-08
0 
0 
7.90656e-08
3.35479e-07
0 
0 
0 
0 
0 
0 
0 
3.08059e-08
1.29537e-05
8.63277e-06
3.03714e-05
0 
2.09884e-05
0 
0 
0 
0 
0 
0 
0 
0 
0 
0 
0 
0 
4.25979e-05
8.86716e-05
0.000127067
0.0001493
0.000149303
0.000127074
8.86812e-05
4.26082e-05
0 
0 
0 
0 
0 
0 
0 
0 
0 
0 
0 
0 
2.09862e-05
0 
3.037e-05
8.63509e-06
1.29536e-05
3.08836e-08
0 
0 
0 
0 
0 
0 
0 
3.35512e-07
7.90507e-08
0 
9.60489e-08
2.65059e-07
4.8728e-08
2.27287e-07
0 
0 
0 
0 
0 
0 
1.32699e-05
2.10379e-05
4.08471e-05
3.49663e-06
8.69195e-06
0 
0 
0 
0 
0 
0 
0 
0 
0 
0 
0 
5.54397e-06
0.000214269
0.000467936
0.000724539
0.000933606
0.0010512
0.00105122
0.00093364
0.000724588
0.000467986
0.000214313
5.57278e-06
0 
0 
0 
0 
0 
0 
0 
0 
0 
0 
0 
8.686e-06
3.50122e-06
4.08469e-05
2.10403e-05
1.327e-05
0 
0 
0 
0 
0 
0 
2.27363e-07
4.87158e-08
2.65079e-07
9.60442e-08
3.04213e-07
2.18955e-07
4.01318e-07
0 
0 
0 
0 
0 
0 
1.23951e-05
3.59659e-05
5.95601e-05
2.63186e-05
0 
0 
0 
0 
0 
0 
0 
0 
0 
0 
0 
0 
0.000412462
0.00134625
0.0025663
0.00393582
0.00525017
0.00629028
0.00686518
0.00686524
0.00629044
0.0052504
0.00393606
0.00256653
0.00134643
0.000412573
0 
0 
0 
0 
0 
0 
0 
0 
0 
0 
0 
0 
2.6324e-05
5.95614e-05
3.59686e-05
1.23952e-05
0 
0 
0 
0 
0 
0 
4.01418e-07
2.18926e-07
3.04284e-07
6.29334e-07
4.49817e-07
0 
0 
0 
0 
0 
0 
1.07442e-05
5.20642e-05
8.27253e-05
4.56959e-05
0 
0 
0 
0 
0 
0 
0 
0 
0 
0 
0 
0.000503076
0.0027779
0.00633148
0.0111558
0.0168785
0.0228908
0.0284075
0.0326343
0.0349271
0.0349274
0.0326349
0.0284085
0.0228919
0.0168795
0.0111567
0.00633211
0.00277829
0.000503268
0 
0 
0 
0 
0 
0 
0 
0 
0 
0 
0 
4.57011e-05
8.2729e-05
5.20669e-05
1.07441e-05
0 
0 
0 
0 
0 
0 
4.49903e-07
6.29316e-07
9.40772e-07
0 
0 
0 
0 
0 
0 
9.01224e-06
6.47294e-05
0.000105879
6.62328e-05
1.52449e-05
0 
0 
0 
0 
0 
0 
0 
0 
0 
3.06748e-06
0.00372758
0.0106296
0.0214739
0.0362682
0.054189
0.0737314
0.0928576
0.10946
0.12167
0.128132
0.128133
0.121672
0.109462
0.0928609
0.0737348
0.0541921
0.0362708
0.0214758
0.0106307
0.00372816
3.26058e-06
0 
0 
0 
0 
0 
0 
0 
0 
0 
1.52435e-05
6.62385e-05
0.000105884
6.47322e-05
9.01201e-06
0 
0 
0 
0 
0 
0 
9.40945e-07
7.14406e-07
8.13686e-08
0 
0 
0 
0 
6.07339e-06
6.83564e-05
0.000123737
9.30756e-05
3.84223e-05
0 
0 
0 
0 
0 
0 
0 
0 
0 
0.00271223
0.0120398
0.0288544
0.0548502
0.0896746
0.131527
0.176968
0.221976
0.26266
0.295815
0.319121
0.331119
0.331121
0.319125
0.295821
0.262667
0.221984
0.176976
0.131534
0.0896804
0.0548545
0.0288571
0.0120412
0.00271277
0 
0 
0 
0 
0 
0 
0 
0 
0 
3.84235e-05
9.30828e-05
0.000123742
6.83588e-05
6.07299e-06
0 
0 
0 
0 
8.14352e-08
7.14411e-07
2.90411e-07
0 
0 
0 
0 
0 
6.17976e-05
0.000135213
0.000124708
5.37723e-05
0 
0 
0 
0 
0 
0 
0 
0 
0 
0.00838443
0.0271346
0.0602266
0.109714
0.173976
0.248591
0.326858
0.402304
0.469607
0.525322
0.567618
0.595842
0.60992
0.609921
0.595847
0.567626
0.525332
0.469619
0.402317
0.326871
0.248604
0.173986
0.109722
0.0602315
0.0271373
0.00838552
0 
0 
0 
0 
0 
0 
0 
0 
0 
5.37739e-05
0.000124718
0.000135218
6.17993e-05
0 
0 
0 
0 
0 
2.90572e-07
0 
0 
0 
0 
0 
4.95695e-05
0.000133218
0.000148718
6.70408e-05
0 
0 
0 
0 
0 
0 
0 
0 
0.00207807
0.0164828
0.0477972
0.1017
0.179385
0.27624
0.383063
0.489015
0.585422
0.666806
0.731268
0.77932
0.812777
0.833692
0.843713
0.843714
0.833696
0.812783
0.77933
0.73128
0.66682
0.585438
0.489032
0.383079
0.276254
0.179396
0.101707
0.0478012
0.0164845
0.00207853
0 
0 
0 
0 
0 
0 
0 
0 
6.70431e-05
0.000148726
0.00013322
4.95713e-05
0 
0 
0 
0 
0 
0 
0 
0 
0 
2.1968e-05
0.000122707
0.000166185
9.99296e-05
0 
0 
0 
0 
0 
0 
0 
0 
0.00425276
0.0250564
0.0697065
0.145179
0.250611
0.376436
0.507363
0.62859
0.730511
0.809355
0.866433
0.905538
0.931094
0.946981
0.956089
0.960236
0.960237
0.956092
0.946985
0.9311
0.905547
0.866444
0.80937
0.730528
0.628608
0.507382
0.376453
0.250625
0.145188
0.0697117
0.0250587
0.0042534
0 
0 
0 
0 
0 
0 
0 
0 
9.99318e-05
0.000166194
0.000122708
2.19681e-05
0 
0 
0 
0 
0 
0 
0 
0 
0.000109734
0.000150612
0.000150938
0 
0 
0 
0 
0 
0 
0 
0 
0.00552167
0.0314642
0.0875612
0.181848
0.311051
0.459372
0.60534
0.731119
0.82779
0.89498
0.938106
0.963981
0.978717
0.986811
0.991125
0.99333
0.994268
0.994268
0.993331
0.991128
0.986815
0.978723
0.963989
0.938116
0.894992
0.827805
0.731137
0.605359
0.45939
0.311066
0.181858
0.087567
0.0314667
0.00552232
0 
0 
0 
0 
0 
0 
0 
0 
0.000150942
0.000150619
0.000109733
0 
0 
0 
0 
0 
2.61996e-06
0 
8.23023e-05
0.000111981
0.000188244
0 
0 
0 
0 
0 
0 
0 
0 
0.00534688
0.0336654
0.0971096
0.205298
0.353019
0.518149
0.673494
0.798752
0.886731
0.941352
0.971978
0.98749
0.994738
0.997948
0.999237
0.99965
0.999754
0.999823
0.999823
0.999755
0.999652
0.999239
0.997951
0.994742
0.987495
0.971985
0.941362
0.886743
0.798767
0.673512
0.518166
0.353034
0.205308
0.0971152
0.0336677
0.00534742
0 
0 
0 
0 
0 
0 
0 
0 
0.000188248
0.00011198
8.23014e-05
0 
2.61919e-06
0 
0 
0 
4.16979e-05
7.79511e-05
0.000205601
5.3754e-06
0 
0 
0 
0 
0 
0 
0 
0.00386498
0.0309662
0.0964415
0.212282
0.37309
0.551434
0.714516
0.839161
0.920001
0.965191
0.987117
0.996277
0.999655
1.00056
1.0005
1.00017
0.999815
0.999611
0.99962
0.999621
0.999613
0.999817
1.00017
1.0005
1.00057
0.999658
0.996281
0.987123
0.965198
0.92001
0.839174
0.714532
0.55145
0.373104
0.212291
0.0964463
0.030968
0.00386531
0 
0 
0 
0 
0 
0 
0 
5.37629e-06
0.000205604
7.79499e-05
4.16974e-05
0 
0 
0 
0 
4.77882e-05
0.000171744
8.42932e-05
0 
0 
0 
0 
0 
0 
0 
0.00144903
0.0243379
0.0859687
0.202348
0.370539
0.56004
0.732117
0.859367
0.93713
0.97685
0.993668
0.999507
1.00098
1.00078
1.00017
0.99955
0.999001
0.998537
0.99833
0.998541
0.998541
0.998333
0.99854
0.999004
0.999553
1.00017
1.00078
1.00099
0.999509
0.993671
0.976855
0.937138
0.859378
0.73213
0.560053
0.37055
0.202355
0.0859722
0.0243391
0.00144915
0 
0 
0 
0 
0 
0 
0 
8.42956e-05
0.000171745
4.7788e-05
0 
0 
0 
2.37416e-05
9.28433e-05
0.000141147
4.78251e-06
0 
0 
0 
0 
0 
0 
0 
0.0157677
0.0681538
0.177508
0.346302
0.544989
0.728723
0.863762
0.943605
0.981854
0.996358
1.00066
1.00111
1.00036
0.999415
0.998521
0.997655
0.996855
0.996394
0.99654
0.997312
0.997313
0.996543
0.996398
0.996859
0.997659
0.998525
0.999418
1.00036
1.00111
1.00066
0.996361
0.981858
0.943612
0.863771
0.728734
0.545
0.34631
0.177513
0.0681559
0.0157682
0 
0 
0 
0 
0 
0 
0 
4.78712e-06
0.000141149
9.28408e-05
2.37404e-05
0 
0 
3.62164e-05
0.000142112
5.11006e-05
0 
0 
0 
0 
0 
0 
0 
0.00760849
0.0472367
0.141883
0.302945
0.507039
0.704841
0.853811
0.94176
0.98266
0.997179
1.00099
1.0009
0.999716
0.998408
0.997039
0.995634
0.994341
0.993362
0.993395
0.994714
0.996456
0.996456
0.994715
0.993397
0.993365
0.994344
0.995637
0.997041
0.99841
0.999717
1.0009
1.00099
0.997181
0.982664
0.941766
0.853818
0.70485
0.507047
0.302951
0.141886
0.0472375
0.00760863
0 
0 
0 
0 
0 
0 
0 
5.11024e-05
0.000142114
3.62072e-05
0 
5.56104e-06
7.86255e-05
9.98908e-05
6.80347e-06
0 
0 
0 
0 
0 
0 
0.00151764
0.0274825
0.101396
0.245165
0.447376
0.659436
0.828368
0.931475
0.979817
0.996734
1.00092
1.00065
0.999032
0.997288
0.995162
0.992927
0.990774
0.989058
0.988663
0.990198
0.993181
0.99611
0.996109
0.99318
0.990198
0.988665
0.989061
0.990776
0.992929
0.995164
0.997289
0.999033
1.00065
1.00092
0.996735
0.97982
0.931479
0.828374
0.659442
0.447382
0.245168
0.101397
0.0274826
0.00151757
0 
0 
0 
0 
0 
0 
6.80699e-06
9.98887e-05
7.86236e-05
5.56227e-06
2.17863e-05
9.59761e-05
4.66659e-05
0 
0 
0 
0 
0 
0 
0 
0.0122131
0.0628624
0.180137
0.369216
0.591089
0.784171
0.910403
0.972418
0.994913
1.00058
1.00043
0.998521
0.996208
0.99304
0.989679
0.986309
0.983293
0.981713
0.983092
0.987086
0.991945
0.995667
0.995667
0.991944
0.987085
0.983092
0.981714
0.983294
0.98631
0.98968
0.993041
0.996209
0.998522
1.00043
1.00058
0.994915
0.97242
0.910406
0.784175
0.591093
0.369218
0.180138
0.0628622
0.0122129
0 
0 
0 
0 
0 
0 
0 
4.66757e-05
9.5959e-05
2.18101e-05
5.68398e-05
6.02469e-05
6.40296e-06
0 
0 
0 
0 
0 
0 
0.00279697
0.0321363
0.117025
0.279475
0.500073
0.716889
0.873968
0.957929
0.990787
0.999769
1.00036
0.99832
0.995417
0.991174
0.986379
0.981223
0.976208
0.972382
0.972299
0.97696
0.984062
0.990422
0.994548
0.994548
0.990421
0.98406
0.976959
0.972299
0.972383
0.976209
0.981223
0.986379
0.991175
0.995418
0.998321
1.00037
0.99977
0.990788
0.957931
0.87397
0.71689
0.500074
0.279474
0.117024
0.0321355
0.00279673
0 
0 
0 
0 
0 
0 
6.39843e-06
6.02517e-05
5.68329e-05
8.3068e-05
3.64292e-05
0 
0 
0 
0 
0 
0 
0 
0.012196
0.0647178
0.188995
0.391133
0.623199
0.815654
0.931609
0.982238
0.99784
1.00031
0.998529
0.995225
0.990139
0.983761
0.976293
0.968495
0.961317
0.957615
0.960954
0.970266
0.98072
0.988053
0.992785
0.992785
0.988053
0.980719
0.970265
0.960953
0.957614
0.961317
0.968494
0.976293
0.983762
0.990141
0.995227
0.99853
1.00031
0.997841
0.982239
0.93161
0.815654
0.623198
0.391131
0.188993
0.0647161
0.0121954
0 
0 
0 
0 
0 
0 
0 
3.63885e-05
8.31114e-05
9.23264e-05
0 
0 
0 
0 
0 
0 
0 
0.00188231
0.0284742
0.110404
0.27538
0.504248
0.728691
0.886034
0.965171
0.993328
0.999815
0.999073
0.995783
0.990361
0.982669
0.972817
0.961453
0.949944
0.940372
0.938439
0.947416
0.962639
0.976229
0.98494
0.990794
0.990794
0.98494
0.976228
0.962638
0.947414
0.938438
0.94037
0.949942
0.961453
0.972818
0.982671
0.990364
0.995785
0.999074
0.999816
0.993328
0.96517
0.886033
0.728688
0.504243
0.275376
0.1104
0.0284728
0.00188196
0 
0 
0 
0 
0 
0 
0 
9.23243e-05
8.11941e-05
0 
0 
0 
0 
0 
0 
0 
0.0085786
0.0531472
0.168887
0.369481
0.609801
0.81186
0.932429
0.98308
0.997842
0.999548
0.996937
0.991873
0.983772
0.972194
0.957281
0.940282
0.923364
0.911849
0.913932
0.930951
0.953131
0.970297
0.981446
0.988987
0.988987
0.981446
0.970296
0.953129
0.930949
0.91393
0.911847
0.923362
0.940281
0.957283
0.972198
0.983775
0.991875
0.996938
0.999548
0.997842
0.98308
0.932427
0.811856
0.609794
0.369473
0.168881
0.0531444
0.00857782
0 
0 
0 
0 
0 
0 
0 
8.1202e-05
6.37341e-05
0 
0 
0 
0 
0 
0 
0.000140023
0.0192453
0.0865887
0.23723
0.464678
0.70128
0.873281
0.960896
0.992058
0.999184
0.998299
0.994149
0.986871
0.975305
0.958495
0.936191
0.910684
0.88634
0.873495
0.882673
0.910336
0.940937
0.963058
0.977815
0.987508
0.987507
0.977814
0.963057
0.940934
0.910333
0.882669
0.873491
0.886337
0.910684
0.936194
0.958499
0.975308
0.986873
0.994149
0.998299
0.999184
0.992057
0.960893
0.873276
0.701271
0.464668
0.237222
0.0865841
0.0192437
0.000139755
0 
0 
0 
0 
0 
0 
6.3734e-05
3.31594e-05
0 
0 
0 
0 
0 
0 
0.00385274
0.0348887
0.128409
0.311668
0.554764
0.776152
0.916144
0.977501
0.996301
0.999041
0.996463
0.990844
0.981016
0.965513
0.941949
0.909377
0.871535
0.836271
0.822787
0.843039
0.884454
0.925732
0.954764
0.97415
0.986255
0.986254
0.974149
0.954762
0.925729
0.88445
0.843034
0.822782
0.836269
0.871537
0.909381
0.941954
0.965516
0.981017
0.990844
0.996462
0.99904
0.9963
0.977499
0.916139
0.776143
0.554752
0.311656
0.128402
0.0348858
0.00385207
0 
0 
0 
0 
0 
0 
3.2904e-05
0 
0 
0 
0 
0 
0 
0 
0.00950225
0.0558072
0.17713
0.388015
0.63561
0.834553
0.944719
0.987059
0.997943
0.998212
0.99436
0.987095
0.974934
0.955127
0.924062
0.878543
0.823769
0.772405
0.758337
0.794313
0.853051
0.907838
0.945727
0.970571
0.985122
0.985122
0.97057
0.945725
0.907834
0.853046
0.794307
0.758332
0.772404
0.823773
0.878549
0.924067
0.955129
0.974933
0.987093
0.994358
0.99821
0.997942
0.987057
0.944714
0.834543
0.635596
0.388
0.177119
0.0558026
0.00950096
0 
0 
0 
0 
0 
0 
0 
0 
0 
0 
0 
0 
0 
0.000307334
0.0177377
0.081664
0.230789
0.46236
0.705067
0.878307
0.963224
0.992182
0.998475
0.997106
0.992174
0.983491
0.969053
0.945214
0.906396
0.846599
0.77086
0.697643
0.682041
0.737967
0.817447
0.888134
0.936409
0.967205
0.984142
0.984142
0.967204
0.936407
0.888131
0.817442
0.73796
0.682036
0.697643
0.770866
0.846606
0.9064
0.945214
0.969051
0.983488
0.992171
0.997104