# vtk DataFile Version 3.0
fluid_state
ASCII
DATASET RECTILINEAR_GRID
DIMENSIONS 64 256 1 
X_COORDINATES 64 float
0 1 2 3 4 5 6 7 8 9 10 11 12 13 14 15 16 17 18 19 20 21 22 23 24 25 26 27 28 29 30 31 32 33 34 35 36 37 38 39 40 41 42 43 44 45 46 47 48 49 50 51 52 53 54 55 56 57 58 59 60 61 62 63 
Y_COORDINATES 256 float
0 1 2 3 4 5 6 7 8 9 10 11 12 13 14 15 16 17 18 19 20 21 22 23 24 25 26 27 28 29 30 31 32 33 34 35 36 37 38 39 40 41 42 43 44 45 46 47 48 49 50 51 52 53 54 55 56 57 58 59 60 61 62 63 64 65 66 67 68 69 70 71 72 73 74 75 76 77 78 79 80 81 82 83 84 85 86 87 88 89 90 91 92 93 94 95 96 97 98 99 100 101 102 103 104 105 106 107 108 109 110 111 112 113 114 115 116 117 118 119 120 121 122 123 124 125 126 127 128 129 130 131 132 133 134 135 136 137 138 139 140 141 142 143 144 145 146 147 148 149 150 151 152 153 154 155 156 157 158 159 160 161 162 163 164 165 166 167 168 169 170 171 172 173 174 175 176 177 178 179 180 181 182 183 184 185 186 187 188 189 190 191 192 193 194 195 196 197 198 199 200 201 202 203 204 205 206 207 208 209 210 211 212 213 214 215 216 217 218 219 220 221 222 223 224 225 226 227 228 229 230 231 232 233 234 235 236 237 238 239 240 241 242 243 244 245 246 247 248 249 250 251 252 253 254 255 
Z_COORDINATES 1 float
0 
POINT_DATA 16384
SCALARS phase float 1
LOOKUP_TABLE default
0 
0 
0 
0 
0 
0 
0 
0 
0 
0 
0 
0 
0 
0 
0 
0 
0 
0 
0 
0 
0 
0 
0 
0 
0 
0 
0 
0 
0 
0 
0 
0 
0 
0 
0 
0 
0 
0 
0 
0 
0 
0 
0 
0 
0 
0 
0 
0 
0 
0 
0 
0 
0 
0 
0 
0 
0 
0 
0 
0 
0 
0 
0 
0 
0 
0 
0 
0 
0 
0 
0 
0 
0 
0 
0 
0 
0 
0 
0 
0 
0 
0 
0 
0 
0 
0 
0 
0 
0 
0 
0 
0 
0 
0 
0 
0 
0 
0 
0 
0 
0 
0 
0 
0 
0 
0 
0 
0 
0 
0 
0 
0 
0 
0 
0 
0 
0 
0 
0 
0 
0 
0 
0 
0 
0 
0 
0 
0 
0 
0 
0 
0 
0 
0 
0 
0 
0 
0 
0 
0 
0 
0 
0 
0 
0 
0 
0 
0 
0 
0 
0 
0 
0 
0 
0 
0 
0 
0 
0 
0 
0 
0 
0 
0 
0 
0 
0 
0 
0 
0 
0 
0 
0 
0 
0 
0 
0 
0 
0 
0 
0 
0 
0 
0 
0 
0 
0 
0 
0 
0 
0 
0 
0 
0 
0 
0 
0 
0 
0 
0 
0 
0 
0 
0 
0 
0 
0 
0 
0 
0 
0 
0 
0 
0 
0 
0 
0 
0 
0 
0 
0 
0 
0 
0 
0 
0 
0 
0 
0 
0 
0 
0 
0 
0 
0 
0 
0 
0 
0 
0 
0 
0 
0 
0 
0 
0 
0 
0 
0 
0 
0 
0 
0 
0 
0 
0 
0 
0 
0 
0 
0 
0 
0 
0 
0 
0 
0 
0 
0 
0 
0 
0 
0 
0 
0 
0 
0 
0 
0 
0 
0 
0 
0 
0 
0 
0 
0 
0 
0 
0 
0 
0 
0 
0 
0 
0 
0 
0 
0 
0 
0 
0 
0 
0 
0 
0 
0 
0 
0 
0 
0 
0 
0 
0 
0 
0 
0 
0 
0 
0 
0 
0 
0 
0 
0 
0 
0 
0 
0 
0 
0 
0 
0 
0 
0 
0 
0 
0 
0 
0 
0 
0 
0 
0 
0 
0 
0 
0 
0 
0 
0 
0 
0 
0 
0 
0 
0 
0 
0 
0 
0 
0 
0 
0 
0 
0 
0 
0 
0 
0 
0 
0 
0 
0 
0 
0 
0 
0 
0 
0 
0 
0 
0 
0 
0 
0 
0 
0 
0 
0 
0 
0 
0 
0 
0 
0 
0 
0 
0 
0 
0 
0 
0 
0 
0 
0 
0 
0 
0 
0 
0 
0 
0 
0 
0 
0 
0 
0 
0 
0 
0 
0 
0 
0 
0 
0 
0 
0 
0 
0 
0 
0 
0 
0 
0 
0 
0 
0 
0 
0 
0 
0 
0 
0 
0 
0 
0 
0 
0 
0 
0 
0 
0 
0 
0 
0 
0 
0 
0 
0 
0 
0 
0 
0 
0 
0 
0 
0 
0 
0 
0 
0 
0 
0 
0 
0 
0 
0 
0 
0 
0 
0 
0 
0 
0 
0 
0 
0 
0 
0 
0 
0 
0 
0 
0 
0 
0 
0 
0 
0 
0 
0 
0 
0 
0 
0 
0 
0 
0 
0 
0 
0 
0 
0 
0 
0 
0 
0 
0 
0 
0 
0 
0 
0 
0 
0 
0 
0 
0 
0 
0 
0 
0 
0 
0 
0 
0 
0 
0 
0 
0 
0 
0 
0 
0 
0 
0 
0 
0 
0 
0 
0 
0 
0 
0 
0 
0 
0 
0 
0 
0 
0 
0 
0 
0 
0 
0 
0 
0 
0 
0 
0 
0 
0 
0 
0 
0 
0 
0 
0 
0 
0 
0 
0 
0 
0 
0 
0 
0 
0 
0 
0 
0 
0 
0 
0 
0 
0 
0 
0 
0 
0 
0 
0 
0 
0 
0 
0 
0 
0 
0 
0 
0 
0 
0 
0 
0 
0 
0 
0 
0 
0 
0 
0 
0 
0 
0 
0 
0 
0 
0 
0 
0 
0 
0 
0 
0 
0 
0 
0 
0 
0 
0 
0 
0 
0 
0 
0 
0 
0 
0 
0 
0 
0 
0 
0 
0 
0 
0 
0 
0 
0 
0 
0 
0 
0 
0 
0 
0 
0 
0 
0 
0 
0 
0 
0 
0 
0 
0 
0 
0 
0 
0 
0 
0 
0 
0 
0 
0 
0 
0 
0 
0 
0 
0 
0 
0 
0 
0 
0 
0 
0 
0 
0 
0 
0 
0 
0 
0 
0 
0 
0 
0 
0 
0 
0 
0 
0 
0 
0 
0 
0 
0 
0 
0 
0 
0 
0 
0 
0 
0 
0 
0 
0 
0 
0 
0 
0 
0 
0 
0 
0 
0 
0 
0 
0 
0 
0 
0 
0 
0 
0 
0 
0 
0 
0 
0 
0 
0 
0 
0 
0 
0 
0 
0 
0 
0 
0 
0 
0 
0 
0 
0 
0 
0 
0 
0 
0 
0 
0 
0 
0 
0 
0 
0 
0 
0 
0 
0 
0 
0 
0 
0 
0 
0 
0 
0 
0 
0 
0 
0 
0 
0 
0 
0 
0 
0 
0 
0 
0 
0 
0 
0 
0 
0 
0 
0 
0 
0 
0 
0 
0 
0 
0 
0 
0 
0 
0 
0 
0 
0 
0 
0 
0 
0 
0 
0 
0 
0 
0 
0 
0 
0 
0 
0 
0 
0 
0 
0 
0 
0 
0 
0 
0 
0 
0 
0 
0 
0 
0 
0 
0 
0 
0 
0 
0 
0 
0 
0 
0 
0 
0 
0 
0 
0 
0 
0 
0 
0 
0 
0 
0 
0 
0 
0 
0 
0 
0 
0 
0 
0 
0 
0 
0 
0 
0 
0 
0 
0 
0 
0 
0 
0 
0 
0 
0 
0 
0 
0 
0 
0 
0 
0 
0 
0 
0 
0 
0 
0 
0 
0 
0 
0 
0 
0 
0 
0 
0 
0 
0 
0 
0 
0 
0 
0 
0 
0 
0 
0 
0 
0 
0 
0 
0 
0 
0 
0 
0 
0 
0 
0 
0 
0 
0 
0 
0 
0 
0 
0 
0 
0 
0 
0 
0 
0 
0 
0 
0 
0 
0 
0 
0 
0 
0 
0 
0 
0 
0 
0 
0 
0 
0 
0 
0 
0 
0 
0 
0 
0 
0 
0 
0 
0 
0 
0 
0 
0 
0 
0 
0 
0 
0 
0 
0 
0 
0 
0 
0 
0 
0 
0 
0 
0 
0 
0 
0 
0 
0 
0 
0 
0 
0 
0 
0 
0 
0 
0 
0 
0 
0 
0 
0 
0 
0 
0 
0 
0 
0 
0 
0 
0 
0 
0 
0 
0 
0 
0 
0 
0 
0 
0 
0 
0 
0 
0 
0 
0 
0 
0 
0 
0 
0 
0 
0 
0 
0 
0 
0 
0 
0 
0 
0 
0 
0 
0 
0 
0 
0 
0 
0 
0 
0 
0 
0 
0 
0 
0 
0 
0 
0 
0 
0 
0 
0 
0 
0 
0 
0 
0 
0 
0 
0 
0 
0 
0 
0 
0 
0 
0 
0 
0 
0 
0 
0 
0 
0 
0 
0 
0 
0 
0 
0 
0 
0 
0 
0 
0 
0 
0 
0 
0 
0 
0 
0 
0 
0 
0 
0 
0 
0 
0 
0 
0 
0 
0 
0 
0 
0 
0 
0 
0 
0 
0 
0 
0 
0 
0 
0 
0 
0 
0 
0 
0 
0 
0 
0 
0 
0 
0 
0 
0 
0 
0 
0 
0 
0 
0 
0 
0 
0 
0 
0 
0 
0 
0 
0 
0 
0 
0 
0 
0 
0 
0 
0 
0 
0 
0 
0 
0 
0 
0 
0 
0 
0 
0 
0 
0 
0 
0 
0 
0 
0 
0 
0 
0 
0 
0 
0 
0 
0 
0 
0 
0 
0 
0 
0 
0 
0 
0 
0 
0 
0 
0 
0 
0 
0 
0 
0 
0 
0 
0 
0 
0 
0 
0 
0 
0 
0 
0 
0 
0 
0 
0 
0 
0 
0 
0 
0 
0 
0 
0 
0 
0 
0 
0 
0 
0 
0 
0 
0 
0 
0 
0 
0 
0 
0 
0 
0 
0 
0 
0 
0 
0 
0 
0 
0 
0 
0 
0 
0 
0 
0 
0 
0 
0 
0 
0 
0 
0 
0 
0 
0 
0 
0 
0 
0 
0 
0 
0 
0 
0 
0 
0 
0 
0 
0 
0 
0 
0 
0 
0 
0 
0 
0 
0 
0 
0 
0 
0 
0 
0 
0 
0 
0 
0 
0 
0 
0 
0 
0 
0 
0 
0 
0 
0 
0 
0 
0 
0 
0 
0 
0 
0 
0 
0 
0 
0 
0 
0 
0 
0 
0 
0 
0 
0 
0 
0 
0 
0 
0 
0 
0 
0 
0 
0 
0 
0 
0 
0 
0 
0 
0 
0 
0 
0 
0 
0 
0 
0 
0 
0 
0 
0 
0 
0 
0 
0 
0 
0 
0 
0 
0 
0 
0 
0 
0 
0 
0 
0 
0 
0 
0 
0 
0 
0 
0 
0 
0 
0 
0 
0 
0 
0 
0 
0 
0 
0 
0 
0 
0 
0 
0 
0 
0 
0 
0 
0 
0 
0 
0 
0 
0 
0 
0 
0 
0 
0 
0 
0 
0 
0 
0 
0 
0 
0 
0 
0 
0 
0 
0 
0 
0 
0 
0 
0 
0 
0 
0 
0 
0 
0 
0 
0 
0 
0 
0 
0 
0 
0 
0 
0 
0 
0 
0 
0 
0 
0 
0 
0 
0 
0 
0 
0 
0 
0 
0 
0 
0 
0 
0 
0 
0 
0 
0 
0 
0 
0 
0 
0 
0 
0 
0 
0 
0 
0 
0 
0 
0 
0 
0 
0 
0 
0 
0 
0 
0 
0 
0 
0 
0 
0 
0 
0 
0 
0 
0 
0 
0 
0 
0 
0 
0 
0 
0 
0 
0 
0 
0 
0 
0 
0 
0 
0 
0 
0 
0 
0 
0 
0 
0 
0 
0 
0 
0 
0 
0 
0 
0 
0 
0 
0 
0 
0 
0 
0 
0 
0 
0 
0 
0 
0 
0 
0 
0 
0 
0 
0 
0 
0 
0 
0 
0 
0 
0 
0 
0 
0 
0 
0 
0 
0 
0 
0 
0 
0 
0 
0 
0 
0 
0 
0 
0 
0 
0 
1.14446e-12
0 
1.4363e-12
0 
0 
0 
0 
0 
0 
0 
0 
0 
0 
0 
0 
0 
0 
0 
0 
0 
0 
0 
0 
0 
0 
0 
0 
0 
0 
0 
0 
0 
0 
1.43627e-12
0 
1.14452e-12
0 
0 
0 
0 
0 
0 
0 
0 
0 
0 
0 
0 
0 
0 
0 
0 
0 
0 
0 
0 
0 
0 
0 
0 
0 
0 
0 
1.03468e-12
0 
2.31128e-12
0 
1.8434e-12
0 
0 
0 
0 
0 
0 
0 
0 
0 
0 
0 
0 
0 
0 
0 
0 
0 
0 
0 
0 
0 
0 
0 
0 
0 
0 
0 
0 
1.84339e-12
0 
2.31134e-12
0 
1.03477e-12
0 
0 
0 
0 
0 
0 
0 
0 
0 
0 
0 
0 
0 
0 
0 
0 
0 
0 
0 
0 
0 
0 
0 
0 
0 
0 
0 
2.43026e-12
0 
4.09229e-12
0 
1.47213e-12
0 
0 
0 
0 
0 
0 
0 
0 
0 
0 
0 
0 
0 
0 
0 
0 
0 
0 
0 
0 
0 
0 
0 
0 
0 
0 
1.47222e-12
0 
4.0923e-12
0 
2.43049e-12
0 
0 
0 
0 
0 
0 
0 
0 
0 
0 
0 
0 
0 
0 
0 
0 
0 
0 
0 
0 
0 
0 
0 
0 
0 
0 
0 
1.62682e-12
0 
5.47776e-12
0 
5.6528e-12
0 
0 
1.07702e-12
0 
0 
0 
0 
0 
0 
0 
0 
0 
0 
0 
0 
0 
0 
0 
0 
0 
0 
0 
0 
0 
0 
1.07644e-12
0 
0 
5.65304e-12
0 
5.47811e-12
0 
1.62706e-12
0 
0 
0 
0 
0 
0 
0 
0 
0 
0 
0 
0 
0 
0 
0 
0 
0 
0 
0 
0 
0 
0 
0 
0 
0 
0 
0 
4.38472e-12
0 
1.06451e-11
0 
4.99533e-12
0 
0 
1.90885e-12
0 
0 
0 
0 
0 
0 
0 
0 
0 
0 
0 
0 
0 
0 
0 
0 
0 
0 
0 
0 
1.90883e-12
0 
0 
4.99602e-12
0 
1.06455e-11
0 
4.38539e-12
0 
0 
0 
0 
0 
0 
0 
0 
0 
0 
0 
0 
0 
0 
0 
0 
0 
0 
0 
0 
0 
0 
0 
0 
1.04631e-12
0 
0 
1.71709e-12
0 
1.12639e-11
0 
1.58096e-11
0 
1.50471e-12
2.85175e-12
0 
1.57619e-12
0 
0 
0 
0 
0 
0 
0 
0 
0 
0 
0 
0 
0 
0 
0 
0 
0 
0 
1.57433e-12
0 
2.84949e-12
1.50686e-12
0 
1.58111e-11
0 
1.12651e-11
0 
1.71762e-12
0 
0 
1.04609e-12
0 
0 
0 
0 
0 
0 
0 
0 
0 
0 
0 
0 
0 
0 
0 
0 
0 
0 
0 
1.54276e-12
0 
2.8475e-12
0 
1.26104e-12
6.14893e-12
0 
2.4474e-11
0 
1.54057e-11
0 
0 
6.01124e-12
0 
0 
1.80011e-12
0 
0 
0 
0 
0 
0 
0 
0 
0 
0 
0 
0 
0 
0 
1.80032e-12
0 
0 
6.01027e-12
0 
0 
1.54085e-11
0 
2.44758e-11
0 
6.15045e-12
1.26012e-12
0 
2.84693e-12
0 
1.54257e-12
0 
0 
0 
0 
0 
0 
0 
0 
0 
0 
0 
0 
0 
0 
0 
0 
0 
1.25109e-12
0 
4.81154e-12
0 
6.48971e-12
0 
0 
1.9412e-11
0 
3.97113e-11
0 
7.11471e-12
6.90932e-12
0 
6.17873e-12
0 
0 
2.12995e-12
0 
0 
0 
0 
0 
0 
0 
0 
0 
0 
0 
0 
2.12829e-12
0 
0 
6.17259e-12
0 
6.90226e-12
7.12148e-12
0 
3.97166e-11
0 
1.94151e-11
0 
0 
6.4885e-12
0 
4.81103e-12
0 
1.25096e-12
0 
0 
0 
0 
0 
0 
0 
0 
0 
0 
0 
0 
0 
0 
0 
0 
0 
5.30118e-12
0 
1.21742e-11
0 
1.30359e-11
4.17208e-12
0 
4.96074e-11
0 
4.38606e-11
0 
0 
1.77248e-11
0 
1.39851e-12
4.45196e-12
0 
1.21109e-12
0 
0 
0 
0 
0 
0 
0 
0 
0 
0 
1.20862e-12
0 
4.4528e-12
1.39702e-12
0 
1.77205e-11
0 
0 
4.387e-11
0 
4.96125e-11
0 
4.17509e-12
1.30336e-11
0 
1.21728e-11
0 
5.30086e-12
0 
0 
0 
0 
0 
0 
0 
0 
0 
0 
0 
0 
0 
0 
0 
0 
0 
3.49365e-12
0 
1.5635e-11
0 
2.80693e-11
0 
1.90989e-11
2.5031e-11
0 
9.24492e-11
0 
2.65169e-11
1.45343e-11
0 
2.13277e-11
0 
0 
6.2885e-12
0 
0 
0 
0 
0 
0 
0 
0 
0 
0 
0 
0 
6.28441e-12
0 
0 
2.13097e-11
0 
1.45152e-11
2.65356e-11
0 
9.24643e-11
0 
2.50369e-11
1.90947e-11
0 
2.80662e-11
0 
1.56341e-11
0 
3.4935e-12
0 
0 
0 
0 
0 
0 
0 
0 
0 
0 
0 
0 
0 
0 
0 
0 
0 
1.37412e-11
0 
3.95447e-11
0 
5.95084e-11
0 
1.18494e-11
8.7349e-11
0 
1.16257e-10
0 
0 
4.90062e-11
0 
9.14452e-12
1.01871e-11
0 
4.58339e-12
0 
0 
0 
0 
0 
0 
0 
0 
0 
0 
4.57868e-12
0 
1.01892e-11
9.13888e-12
0 
4.89925e-11
0 
0 
1.16284e-10
0 
8.73613e-11
1.18405e-11
0 
5.95027e-11
0 
3.95419e-11
0 
1.37409e-11
0 
0 
0 
0 
0 
0 
0 
0 
0 
0 
0 
0 
0 
0 
2.16019e-12
0 
0 
7.07822e-12
0 
4.03334e-11
0 
9.66045e-11
0 
9.99578e-11
4.73517e-12
0 
2.0107e-10
0 
8.95868e-11
2.44805e-11
0 
6.66639e-11
0 
0 
1.77589e-11
0 
0 
0 
0 
0 
0 
0 
0 
0 
0 
0 
0 
1.7751e-11
0 
0 
6.66164e-11
0 
2.44319e-11
8.9635e-11
0 
2.01106e-10
0 
4.7463e-12
9.99479e-11
0 
9.65978e-11
0 
4.03326e-11
0 
7.07828e-12
0 
0 
2.16026e-12
0 
0 
0 
0 
0 
0 
0 
0 
0 
2.44596e-12
0 
3.34477e-12
1.13364e-12
0 
2.67974e-11
0 
1.07361e-10
0 
2.16872e-10
0 
1.13917e-10
1.20339e-10
0 
2.94946e-10
0 
0 
1.27338e-10
0 
3.81382e-11
2.09909e-11
0 
1.55141e-11
0 
0 
0 
0 
0 
0 
0 
0 
0 
0 
1.551e-11
0 
2.09964e-11
3.81213e-11
0 
1.27299e-10
0 
0 
2.95014e-10
0 
1.20365e-10
1.13897e-10
0 
2.1686e-10
0 
1.07357e-10
0 
2.67979e-11
0 
1.13362e-12
3.34495e-12
0 
2.446e-12
0 
0 
0 
0 
0 
0 
0 
1.3051e-12
0 
7.5158e-12
0 
0 
9.07529e-12
0 
8.44785e-11
0 
2.84948e-10
0 
3.75382e-10
0 
4.88579e-11
4.06247e-10
0 
2.83672e-10
2.22027e-11
0 
1.93658e-10
0 
0 
4.80654e-11
0 
4.2384e-12
1.46408e-12
0 
0 
0 
0 
0 
0 
1.46736e-12
4.24559e-12
0 
4.80568e-11
0 
0 
1.93544e-10
0 
2.20839e-11
2.8379e-10
0 
4.06324e-10
4.8803e-11
0 
3.75358e-10
0 
2.84938e-10
0 
8.44803e-11
0 
9.07592e-12
0 
0 
7.51604e-12
0 
1.30506e-12
0 
0 
0 
0 
0 
0 
0 
9.46884e-12
0 
9.93677e-12
0 
0 
3.66482e-11
0 
2.53271e-10
0 
6.708e-10
0 
4.86913e-10
6.22941e-11
0 
7.32887e-10
0 
8.22843e-11
3.09286e-10
0 
1.35985e-10
3.70123e-11
0 
4.82218e-11
0 
0 
1.41416e-12
0 
0 
0 
0 
1.39163e-12
0 
0 
4.82358e-11
0 
3.70276e-11
1.35939e-10
0 
3.09189e-10
8.235e-11
0 
7.33054e-10
0 
6.23543e-11
4.8686e-10
0 
6.70781e-10
0 
2.53269e-10
0 
3.66507e-11
0 
0 
9.93759e-12
0 
9.46897e-12
0 
0 
0 
0 
0 
0 
0 
6.36675e-12
0 
2.10583e-11
0 
0 
2.40873e-12
0 
1.42066e-10
0 
7.47516e-10
0 
1.18171e-09
0 
4.76663e-10
7.47672e-10
0 
8.54317e-10
0 
0 
5.35662e-10
0 
0 
1.25434e-10
0 
1.77952e-11
1.63203e-12
0 
0 
0 
0 
0 
0 
1.5921e-12
1.78487e-11
0 
1.25446e-10
0 
0 
5.35407e-10
0 
0 
8.54596e-10
0 
7.47837e-10
4.76537e-10
0 
1.18166e-09
0 
7.4751e-10
0 
1.42074e-10
0 
2.40895e-12
0 
0 
2.10593e-11
0 
6.36675e-12
0 
0 
0 
0 
0 
0 
0 
2.88906e-11
0 
1.72524e-11
0 
0 
2.86853e-11
0 
5.45962e-10
0 
1.79128e-09
0 
1.70917e-09
0 
0 
1.7618e-09
0 
4.64134e-10
6.95157e-10
0 
4.4662e-10
4.64229e-11
0 
1.41513e-10
0 
0 
5.72451e-12
0 
1.76983e-12
1.69639e-12
0 
5.59685e-12
0 
0 
1.41599e-10
0 
4.64668e-11
4.46509e-10
0 
6.94927e-10
4.6429e-10
0 
1.76219e-09
0 
0 
1.70903e-09
0 
1.79129e-09
0 
5.45974e-10
0 
2.8687e-11
0 
0 
1.72549e-11
0 
2.8891e-11
0 
0 
0 
0 
0 
0 
0 
2.7843e-11
0 
3.90892e-11
0 
0 
0 
0 
2.17215e-10
0 
1.74671e-09
0 
3.29812e-09
0 
2.13748e-09
1.116e-09
0 
2.47978e-09
0 
0 
1.43823e-09
0 
2.35163e-11
3.17406e-10
0 
6.16055e-11
0 
0 
6.27173e-12
1.71997e-12
1.86946e-12
6.06856e-12
0 
0 
6.17903e-11
0 
3.17497e-10
2.34387e-11
0 
1.43768e-09
0 
0 
2.4804e-09
0 
1.11639e-09
2.13713e-09
0 
3.29803e-09
0 
1.74675e-09
0 
2.17231e-10
0 
0 
0 
0 
3.90921e-11
0 
2.78431e-11
0 
0 
0 
0 
0 
2.07396e-11
0 
5.52689e-11
0 
0 
0 
0 
1.67455e-11
0 
1.13975e-09
0 
4.21148e-09
0 
5.40637e-09
0 
1.18749e-09
4.02975e-09
0 
1.92263e-09
1.43194e-09
0 
1.3846e-09
0 
0 
3.98133e-10
0 
0 
1.83543e-11
0 
1.03058e-11
1.0085e-11
0 
1.78978e-11
0 
0 
3.98388e-10
0 
0 
1.38434e-09
0 
1.43143e-09
1.92297e-09
0 
4.03068e-09
1.18708e-09
0 
5.40601e-09
0 
4.21157e-09
0 
1.13981e-09
0 
1.67484e-11
0 
0 
0 
0 
5.52707e-11
0 
2.074e-11
0 
0 
0 
9.75127e-12
0 
5.608e-11
0 
2.64518e-11
0 
0 
0 
0 
4.37076e-10
0 
3.64039e-09
0 
8.3521e-09
0 
8.06278e-09
5.14364e-10
0 
6.98649e-09
0 
0 
3.78055e-09
0 
2.5722e-10
7.82878e-10
0 
1.87568e-10
0 
0 
3.12365e-11
3.96823e-12
4.3633e-12
3.06392e-11
0 
0 
1.87968e-10
0 
7.83173e-10
2.57054e-10
0 
3.77941e-09
0 
0 
6.98784e-09
0 
5.15312e-10
8.06189e-09
0 
8.35202e-09
0 
3.64059e-09
0 
4.37121e-10
0 
0 
0 
0 
2.64574e-11
0 
5.60822e-11
0 
9.75146e-12
0 
2.02333e-12
4.12829e-12
5.01378e-11
0 
4.70566e-11
0 
0 
0 
0 
0 
0 
2.26131e-09
0 
8.73218e-09
0 
1.60514e-08
0 
7.26468e-09
8.37769e-09
0 
6.92651e-09
2.59119e-09
0 
4.10775e-09
0 
0 
1.06935e-09
0 
0 
6.24295e-11
0 
4.749e-11
4.68292e-11
0 
6.12357e-11
0 
0 
1.0698e-09
0 
0 
4.10719e-09
0 
2.59014e-09
6.9272e-09
0 
8.37971e-09
7.26363e-09
0 
1.60507e-08
0 
8.73259e-09
0 
2.26152e-09
0 
0 
0 
0 
0 
0 
4.70614e-11
0 
5.01398e-11
4.12797e-12
2.02359e-12
2.80375e-12
3.62383e-11
0 
6.64271e-11
0 
0 
0 
0 
0 
0 
8.62228e-10
0 
6.02765e-09
0 
1.87765e-08
0 
2.81079e-08
0 
0 
1.88618e-08
0 
1.72556e-10
9.67782e-09
0 
1.16605e-09
1.88516e-09
0 
4.92152e-10
0 
0 
1.21078e-10
2.00306e-11
2.11524e-11
1.19592e-10
0 
0 
4.92815e-10
0 
1.88586e-09
1.16577e-09
0 
9.67556e-09
1.74261e-10
0 
1.88646e-08
0 
0 
2.81057e-08
0 
1.87768e-08
0 
6.02823e-09
0 
8.62426e-10
0 
0 
0 
0 
0 
0 
6.64324e-11
0 
3.62382e-11
2.80411e-12
1.73827e-11
2.38718e-12
7.85557e-11
0 
4.93862e-12
0 
0 
0 
0 
0 
1.48275e-09
2.73259e-09
0 
1.37802e-08
0 
4.3188e-08
0 
3.12355e-08
1.41934e-08
0 
2.26914e-08
3.41614e-09
0 
1.1757e-08
0 
0 
2.7367e-09
0 
0 
2.03178e-10
0 
1.97221e-10
1.95402e-10
0 
2.00628e-10
0 
0 
2.73731e-09
0 
0 
1.17559e-08
0 
3.41426e-09
2.26926e-08
0 
1.41977e-08
3.12335e-08
0 
4.31874e-08
0 
1.37815e-08
0 
2.73314e-09
1.48238e-09
0 
0 
0 
0 
0 
4.94994e-12
0 
7.85583e-11
2.38912e-12
1.73797e-11
2.12755e-11
7.41299e-11
0 
4.22576e-11
0 
0 
0 
0 
0 
2.1843e-09
1.35815e-10
2.7209e-09
4.8229e-09
0 
3.25859e-08
0 
8.94161e-08
0 
3.82976e-09
4.7994e-08
0 
7.19981e-09
2.39625e-08
0 
4.19755e-09
4.44258e-09
0 
1.14384e-09
0 
0 
3.82385e-10
1.61169e-10
1.64221e-10
3.79197e-10
0 
0 
1.14469e-09
0 
4.44401e-09
4.19717e-09
0 
2.39582e-08
7.20263e-09
0 
4.79996e-08
3.8267e-09
0 
8.94128e-08
0 
3.25882e-08
0 
4.82403e-09
2.72e-09
1.36345e-10
2.18406e-09
0 
0 
0 
0 
0 
4.2263e-11
0 
7.41224e-11
2.12837e-11
6.59346e-11
0 
9.69793e-11
0 
0 
0 
0 
0 
9.45365e-10
0 
8.67415e-09
0 
3.01412e-10
1.13573e-08
0 
1.00949e-07
0 
1.13145e-07
1.2649e-08
0 
6.99832e-08
0 
0 
3.27369e-08
0 
0 
6.8467e-09
0 
0 
4.43015e-10
0 
8.02335e-10
7.97754e-10
0 
4.3884e-10
0 
0 
6.84727e-09
0 
0 
3.27353e-08
0 
0 
6.99848e-08
0 
1.26569e-08
1.13141e-07
0 
1.0095e-07
0 
1.13599e-08
2.99457e-10
0 
8.67346e-09
0 
9.45331e-10
0 
0 
0 
0 
0 
9.69683e-11
0 
6.59162e-11
5.25535e-12
1.41798e-10
0 
0 
0 
0 
0 
0 
0 
1.11164e-08
0 
1.45164e-08
0 
0 
3.4061e-08
0 
2.53159e-07
0 
5.18493e-08
1.14351e-07
0 
3.94227e-08
5.72813e-08
0 
1.30305e-08
1.03793e-08
0 
2.65164e-09
0 
0 
8.86035e-10
1.08842e-09
1.09579e-09
8.80614e-10
0 
0 
2.65194e-09
0 
1.0382e-08
1.30302e-08
0 
5.72736e-08
3.94265e-08
0 
1.14361e-07
5.18437e-08
0 
2.53157e-07
0 
3.40665e-08
0 
0 
1.45147e-08
0 
1.1116e-08
0 
0 
0 
0 
0 
0 
0 
1.41761e-10
5.28948e-12
1.13504e-10
0 
2.7061e-10
0 
0 
0 
0 
0 
1.09247e-08
0 
2.60469e-08
0 
1.94438e-08
0 
0 
2.06982e-07
0 
3.63071e-07
0 
0 
2.10037e-07
0 
0 
9.06305e-08
0 
0 
1.59873e-08
0 
0 
0 
0 
3.34153e-09
3.33195e-09
0 
0 
0 
0 
1.5987e-08
0 
0 
9.06291e-08
0 
0 
2.10035e-07
0 
0 
3.63072e-07
0 
2.0699e-07
0 
0 
1.94401e-08
0 
2.60453e-08
0 
1.09245e-08
0 
0 
0 
0 
0 
2.70563e-10
0 
1.13424e-10
0 
4.48502e-10
0 
3.81342e-10
0 
0 
0 
9.5139e-09
0 
3.20838e-08
0 
4.77129e-08
0 
2.21786e-08
0 
0 
6.34852e-07
0 
2.57741e-07
2.54385e-07
0 
1.66171e-07
1.33567e-07
0 
3.63272e-08
2.11437e-08
0 
4.56304e-09
0 
0 
1.84269e-09
4.37872e-09
4.38979e-09
1.83652e-09
0 
0 
4.5622e-09
0 
2.11509e-08
3.63277e-08
0 
1.33556e-07
1.66173e-07
0 
2.54401e-07
2.57735e-07
0 
6.34871e-07
0 
0 
2.21711e-08
0 
4.77092e-08
0 
3.20822e-08
0 
9.51387e-09
0 
0 
0 
3.81328e-10
0 
4.48372e-10
0 
3.56712e-10
0 
1.06278e-09
0 
6.98967e-10
0 
7.50897e-09
0 
3.47367e-08
0 
6.12674e-08
0 
7.25053e-08
0 
0 
3.7089e-07
0 
1.0181e-06
0 
0 
6.15986e-07
0 
0 
2.63411e-07
0 
0 
3.15867e-08
0 
0 
0 
0 
5.22758e-09
5.22245e-09
0 
0 
0 
0 
3.1592e-08
0 
0 
2.63411e-07
0 
0 
6.15965e-07
0 
0 
1.01813e-06
0 
3.70923e-07
0 
0 
7.25e-08
0 
6.12653e-08
0 
3.47357e-08
0 
7.50928e-09
0 
6.99125e-10
0 
1.06265e-09
0 
3.56497e-10
0 
1.2003e-09
0 
1.87009e-09
0 
6.8111e-09
0 
3.37571e-08
0 
6.25393e-08
0 
9.54437e-08
0 
1.04545e-07
0 
0 
1.45563e-06
0 
9.53526e-07
4.97005e-07
0 
6.19706e-07
2.82377e-07
0 
1.65991e-07
3.56317e-08
0 
0 
0 
0 
0 
0 
0 
0 
0 
0 
0 
0 
3.56563e-08
1.65984e-07
0 
2.82365e-07
6.19694e-07
0 
4.97016e-07
9.53539e-07
0 
1.45571e-06
0 
0 
1.04535e-07
0 
9.54437e-08
0 
6.25385e-08
0 
3.37567e-08
0 
6.8116e-09
0 
1.87005e-09
0 
1.20006e-09
0 
2.69931e-10
0 
2.68279e-09
0 
6.3043e-09
4.47386e-10
3.04683e-08
0 
5.7437e-08
0 
7.98819e-08
0 
1.04078e-07
0 
2.04325e-07
7.40587e-07
0 
2.75601e-06
0 
0 
1.73557e-06
0 
0 
8.07866e-07
0 
0 
5.73645e-08
0 
0 
0 
0 
0 
0 
0 
0 
0 
0 
5.73832e-08
0 
0 
8.07875e-07
0 
0 
1.73549e-06
0 
0 
2.75611e-06
0 
7.40687e-07
2.04271e-07
0 
1.04077e-07
0 
7.98843e-08
0 
5.74365e-08
0 
3.04688e-08
4.46496e-10
6.3048e-09
0 
2.68264e-09
0 
2.69603e-10
0 
1.81864e-09
0 
5.58314e-09
0 
2.66764e-08
4.60139e-09
4.48406e-08
0 
4.15158e-08
0 
4.06827e-08
0 
3.44842e-07
0 
2.90879e-07
3.10987e-06
0 
2.83415e-06
4.95133e-07
0 
2.12082e-06
4.1661e-07
0 
8.55885e-07
2.80707e-07
0 
0 
0 
0 
0 
0 
0 
0 
0 
0 
0 
0 
2.80791e-07
8.55841e-07
0 
4.16643e-07
2.12076e-06
0 
4.95114e-07
2.83421e-06
0 
3.1101e-06
2.90698e-07
0 
3.4481e-07
0 
4.06866e-08
0 
4.15178e-08
0 
4.48405e-08
4.59995e-09
2.66783e-08
0 
5.58331e-09
0 
1.81831e-09
0 
1.31751e-10
0 
5.42749e-09
0 
2.0456e-08
3.27312e-08
2.48479e-08
0 
0 
0 
0 
0 
1.16345e-07
0 
1.93431e-06
1.30466e-06
0 
6.0891e-06
0 
0 
3.46537e-06
0 
2.04892e-07
1.9404e-06
0 
2.53938e-07
2.97876e-07
5.64679e-08
0 
0 
0 
0 
0 
0 
0 
0 
5.64859e-08
2.97942e-07
2.53781e-07
0 
1.94045e-06
2.04522e-07
0 
3.46507e-06
0 
0 
6.0894e-06
0 
1.305e-06
1.93413e-06
0 
1.16336e-07
0 
0 
0 
0 
0 
2.48496e-08
3.27276e-08
2.04589e-08
0 
5.42759e-09
0 
1.31179e-10
0 
9.15011e-10
0 
1.18973e-08
4.76401e-08
8.43613e-09
3.35901e-08
0 
0 
0 
0 
0 
0 
1.87522e-06
0 
2.98826e-06
4.51984e-06
0 
7.04852e-06
0 
0 
4.78595e-06
0 
0 
2.29143e-06
1.57938e-06
3.90814e-07
0 
0 
0 
0 
0 
0 
0 
0 
0 
0 
3.90584e-07
1.57975e-06
2.29135e-06
0 
0 
4.78581e-06
0 
0 
7.04874e-06
0 
4.52048e-06
2.98774e-06
0 
1.87515e-06
0 
0 
0 
0 
0 
0 
3.35869e-08
8.44118e-09
4.7634e-08
1.19001e-08
0 
9.14552e-10
0 
0 
0 
0 
3.68659e-08
9.72656e-09
1.21027e-07
0 
0 
0 
0 
0 
0 
5.66935e-07
0 
7.55674e-06
0 
0 
9.76276e-06
0 
0 
3.23514e-06
0 
0 
2.6367e-06
0 
1.31517e-06
3.0776e-06
1.7111e-06
0 
0 
0 
0 
0 
0 
0 
0 
1.71112e-06
3.07795e-06
1.31483e-06
0 
2.63691e-06
0 
0 
3.23448e-06
0 
0 
9.76363e-06
0 
0 
7.55633e-06
0 
5.66926e-07
0 
0 
0 
0 
0 
0 
1.21018e-07
9.7357e-09
3.6859e-08
0 
0 
0 
0 
0 
1.76379e-08
2.85605e-08
1.88907e-07
0 
0 
0 
0 
0 
0 
0 
0 
8.75297e-06
0 
9.62665e-06
6.47611e-07
0 
1.18111e-05
0 
0 
4.2594e-06
0 
0 
2.24973e-06
3.23725e-06
2.3454e-06
3.15374e-06
2.25862e-06
9.56745e-07
9.49343e-07
9.42893e-07
9.42369e-07
9.50015e-07
9.55548e-07
2.25918e-06
3.15348e-06
2.34527e-06
3.23836e-06
2.24969e-06
0 
0 
4.25914e-06
0 
0 
1.18119e-05
0 
6.48902e-07
9.62564e-06
0 
8.75262e-06
0 
0 
0 
0 
0 
0 
0 
0 
1.88894e-07
2.857e-08
1.76331e-08
0 
0 
0 
0 
4.72802e-08
2.2336e-07
0 
1.60652e-07
0 
0 
0 
0 
0 
0 
8.73767e-06
0 
2.09441e-05
0 
0 
4.7435e-06
0 
0 
0 
0 
0 
0 
0 
0 
3.81597e-06
4.55413e-06
4.80904e-06
6.02662e-06
7.20288e-06
8.13641e-06
8.13754e-06
7.20087e-06
6.02815e-06
4.80695e-06
4.55474e-06
3.81727e-06
0 
0 
0 
0 
0 
0 
0 
0 
4.74546e-06
0 
0 
2.09434e-05
0 
8.73722e-06
0 
0 
0 
0 
0 
0 
1.60648e-07
0 
2.23343e-07
4.72861e-08
0 
0 
0 
3.11247e-08
2.19467e-07
1.0203e-08
3.53784e-07
0 
0 
0 
0 
0 
0 
7.83142e-06
1.18922e-06
3.09717e-05
0 
1.85386e-05
0 
0 
0 
0 
0 
0 
0 
0 
0 
0 
0 
0 
1.23404e-05
2.73197e-05
3.96104e-05
4.68502e-05
4.68478e-05
3.96129e-05
2.73138e-05
1.23427e-05
0 
0 
0 
0 
0 
0 
0 
0 
0 
0 
0 
0 
1.85376e-05
0 
3.09712e-05
1.18949e-06
7.83095e-06
0 
0 
0 
0 
0 
0 
3.53768e-07
1.02235e-08
2.19452e-07
3.11248e-08
0 
0 
1.65091e-07
1.83628e-07
5.09074e-07
0 
0 
0 
0 
0 
0 
6.15175e-06
7.835e-06
4.33562e-05
0 
3.40261e-05
0 
0 
0 
0 
0 
0 
0 
0 
0 
0 
0 
0 
2.43959e-05
0.000110067
0.000196759
0.000269083
0.000309827
0.000309831
0.000269073
0.000196763
0.000110057
2.43978e-05
0 
0 
0 
0 
0 
0 
0 
0 
0 
0 
0 
0 
3.40262e-05
0 
4.33556e-05
7.83501e-06
6.15127e-06
0 
0 
0 
0 
0 
0 
5.09048e-07
1.83645e-07
1.6508e-07
0 
1.06408e-07
2.38924e-07
5.49244e-07
0 
9.93422e-08
0 
0 
0 
0 
4.30792e-06
1.65712e-05
5.74341e-05
9.69873e-06
4.72305e-05
0 
0 
0 
0 
0 
0 
0 
0 
0 
0 
0 
0 
0.000223709
0.000642621
0.00112827
0.001605
0.00198566
0.00219766
0.00219765
0.00198567
0.00160497
0.00112827
0.000642618
0.000223709
0 
0 
0 
0 
0 
0 
0 
0 
0 
0 
0 
0 
4.72311e-05
9.69975e-06
5.74333e-05
1.65707e-05
4.30761e-06
0 
0 
0 
0 
9.93414e-08
0 
5.49212e-07
2.38932e-07
1.06403e-07
3.5354e-07
5.04588e-07
0 
1.55136e-07
0 
0 
0 
0 
2.21998e-06
2.53558e-05
7.31085e-05
3.76378e-05
6.13227e-05
0 
0 
0 
0 
0 
0 
0 
0 
0 
0 
0 
0.00036213
0.00164671
0.00347916
0.00574734
0.00819345
0.0104839
0.012264
0.0132382
0.0132382
0.012264
0.0104839
0.0081934
0.00574735
0.00347919
0.0016467
0.000362125
0 
0 
0 
0 
0 
0 
0 
0 
0 
0 
0 
6.13238e-05
3.76389e-05
7.31074e-05
2.53547e-05
2.21981e-06
0 
0 
0 
0 
1.5511e-07
0 
5.04557e-07
3.53547e-07
8.10044e-07
2.51515e-07
2.54557e-08
0 
0 
0 
0 
0 
3.04813e-05
8.94649e-05
7.06791e-05
7.69824e-05
0 
0 
0 
0 
0 
0 
0 
0 
0 
0 
0.000239423
0.00293288
0.00743253
0.013974
0.0222802
0.0316925
0.0412281
0.0497375
0.0561266
0.0595499
0.0595499
0.0561266
0.0497373
0.0412282
0.0316926
0.0222803
0.013974
0.00743252
0.00293284
0.000239409
0 
0 
0 
0 
0 
0 
0 
0 
0 
0 
7.69838e-05
7.068e-05
8.94637e-05
3.04795e-05
0 
0 
0 
0 
0 
2.5383e-08
2.51576e-07
8.10027e-07
1.1992e-06
0 
0 
0 
0 
0 
0 
2.86493e-05
0.000104831
0.000103513
9.7663e-05
0 
0 
0 
0 
0 
0 
0 
0 
0 
0 
0.00323442
0.0108837
0.0235422
0.0417638
0.0648736
0.0913714
0.118898
0.144836
0.166691
0.182436
0.190663
0.190663
0.182436
0.166691
0.144836
0.118898
0.0913718
0.0648738
0.0417639
0.0235422
0.0108836
0.00323438
0 
0 
0 
0 
0 
0 
0 
0 
0 
0 
9.76643e-05
0.000103514
0.00010483
2.86471e-05
0 
0 
0 
0 
0 
0 
1.19923e-06
6.65284e-07
1.26197e-07
0 
0 
0 
0 
1.77236e-05
0.000116916
0.00013432
0.000123337
0 
0 
0 
0 
0 
0 
0 
0 
0 
0.00154137
0.0106018
0.0280588
0.0563865
0.0959139
0.14499
0.200057
0.256503
0.309801
0.356165
0.392859
0.418112
0.430948
0.430947
0.418111
0.392859
0.356165
0.309802
0.256504
0.200057
0.14499
0.095914
0.0563864
0.0280586
0.0106017
0.00154126
0 
0 
0 
0 
0 
0 
0 
0 
0 
0.000123339
0.00013432
0.000116915
1.77219e-05
0 
0 
0 
0 
1.26309e-07
6.65323e-07
7.04587e-07
0 
0 
0 
0 
2.97764e-06
0.000120663
0.000150287
0.000154466
0 
0 
0 
0 
0 
0 
0 
0 
0 
0.00575812
0.0232098
0.0558543
0.107036
0.175701
0.257546
0.345277
0.43138
0.509682
0.576248
0.629193
0.66815
0.693563
0.706061
0.706061
0.693562
0.66815
0.629193
0.57625
0.509684
0.431382
0.345278
0.257547
0.175701
0.107036
0.0558538
0.0232095
0.0057579
0 
0 
0 
0 
0 
0 
0 
0 
0 
0.000154469
0.000150285
0.000120661
2.97691e-06
0 
0 
0 
0 
7.04557e-07
0 
0 
0 
0 
0 
0.000107537
0.000145099
0.000193879
0 
0 
0 
0 
0 
0 
0 
0 
7.67866e-06
0.0114236
0.0396064
0.090889
0.168444
0.268224
0.38106
0.494817
0.599292
0.687976
0.758504
0.811503
0.849329
0.874773
0.890277
0.897585
0.897585
0.890276
0.874771
0.84933
0.811505
0.758507
0.687979
0.599295
0.494819
0.381061
0.268224
0.168443
0.0908881
0.0396056
0.0114232
7.51249e-06
0 
0 
0 
0 
0 
0 
0 
0 
0.000193881
0.000145098
0.000107533
0 
0 
0 
0 
0 
0 
0 
2.6146e-06
0 
7.90948e-05
0.000124533
0.000225928
5.40005e-06
0 
0 
0 
0 
0 
0 
0 
0.00119097
0.0169475
0.0561186
0.12615
0.229311
0.356762
0.493126
0.62144
0.730231
0.814536
0.875174
0.916258
0.942857
0.959448
0.969381
0.974928
0.977398
0.977397
0.974925
0.969379
0.959447
0.942861
0.916263
0.875179
0.81454
0.730233
0.621441
0.493126
0.35676
0.229309
0.126148
0.0561173
0.0169468
0.00119074
0 
0 
0 
0 
0 
0 
0 
5.40481e-06
0.000225928
0.00012453
7.90919e-05
0 
2.61438e-06
0 
0 
0 
0 
0 
3.71567e-05
9.50344e-05
0.000239624
5.1094e-05
0 
0 
0 
0 
0 
0 
0 
0.00167973
0.0204598
0.0685144
0.154525
0.2796
0.429146
0.581298
0.715099
0.819386
0.892166
0.938543
0.966044
0.981401
0.98959
0.993815
0.995999
0.99706
0.997496
0.997495
0.997058
0.995997
0.993818
0.989596
0.981409
0.966049
0.938548
0.892169
0.819387
0.715099
0.581296
0.429143
0.279596
0.154523
0.0685125
0.0204589
0.00167943
0 
0 
0 
0 
0 
0 
0 
5.10994e-05
0.000239623
9.50317e-05
3.71542e-05
0 
0 
0 
0 
0 
3.80412e-06
5.76704e-05
0.000221532
0.000104453
0 
0 
0 
0 
0 
0 
0 
0.00112541
0.0206763
0.0737067
0.170921
0.312897
0.479531
0.642661
0.777895
0.875062
0.93596
0.970165
0.987527
0.995429
0.99872
0.999941
1.00034
1.00034
1.00031
1.00028
1.00028
1.00031
1.00034
1.00034
0.99995
0.998729
0.995439
0.987533
0.970167
0.935963
0.875062
0.777893
0.642657
0.479526
0.312893
0.170917
0.0737043
0.0206753
0.00112509
0 
0 
0 
0 
0 
0 
0 
0.000104459
0.000221528
5.76692e-05
3.80288e-06
0 
0 
0 
0 
2.28122e-05
0.000144127
0.000163412
8.006e-05
0 
0 
0 
0 
0 
0 
0 
0.017485
0.0705063
0.172854
0.326147
0.506281
0.678897
0.815808
0.907469
0.959525
0.985389
0.996323
1.00009
1.0012
1.00121
1.00083
1.00045
1.00026
1.00016
1.00009
1.00009
1.00016
1.00026
1.00046
1.00084
1.00123
1.00121
1.00009
0.996328
0.985392
0.959525
0.907468
0.815804
0.678891
0.506275
0.326141
0.172849
0.0705037
0.0174839
0 
0 
0 
0 
0 
0 
0 
8.00637e-05
0.000163413
0.00014412
2.28114e-05
0 
0 
0 
0 
6.15987e-05
0.000175946
8.84019e-05
0 
0 
0 
0 
0 
0 
0 
0.0119741
0.0597718
0.160325
0.318646
0.509522
0.692515
0.834268
0.924384
0.971621
0.992568
0.999712
1.00166
1.00178
1.00128
1.00075
1.00034
0.999875
0.999669
0.999672
0.999704
0.999701
0.999666
0.99967
0.999893
1.00038
1.00077
1.00129
1.00179
1.00166
0.999713
0.992568
0.97162
0.92438
0.834263
0.692508
0.509514
0.318639
0.16032
0.0597691
0.0119731
0 
0 
0 
0 
0 
0 
0 
8.84021e-05
0.000175947
6.1595e-05
0 
0 
0 
1.13887e-05
0.000138598
0.000120564
2.69047e-05
0 
0 
0 
0 
0 
0 
0.00595365
0.0440799
0.135585
0.291467
0.489784
0.685023
0.83652
0.93039
0.976925
0.9958
1.00102
1.00221
1.00183
1.00119
1.00083
1.00034
0.999619
0.998935
0.998906
0.9992
0.999394
0.999387
0.99919
0.998908
0.998996
0.999691
1.00039
1.00085
1.0012
1.00183
1.00221
1.00102
0.995797
0.976923
0.930385
0.836514
0.685015
0.489775
0.291459
0.13558
0.0440777
0.00595299
0 
0 
0 
0 
0 
0 
2.6912e-05
0.000120566
0.000138595
1.13876e-05
0 
0 
5.57198e-05
0.000128747
0.00010364
0 
0 
0 
0 
0 
0 
0.00075505
0.0272058
0.102855
0.247562
0.447807
0.656417
0.823316
0.927299
0.977617
0.996899
1.00154
1.0024
1.00176
1.0012
1.00097
1.00039
0.999898
0.99891
0.998556
0.998664
0.999127
0.999544
0.999539
0.999117
0.998676
0.998617
0.999031
0.999963
1.00042
1.00098
1.0012
1.00176
1.00239
1.00154
0.996895
0.977613
0.927293
0.823308
0.656408
0.447797
0.247554
0.102851
0.0272041
0.000754707
0 
0 
0 
0 
0 
0 
0.000103637
0.00012875
5.57147e-05
0 
0 
9.23533e-05
9.26616e-05
0 
0 
0 
0 
0 
0 
0 
0.0126913
0.067908
0.192194
0.385417
0.6056
0.793048
0.914534
0.974075
0.996462
1.00166
1.00245
1.0018
1.00117
1.00099
1.00039
1.00002
0.999372
0.999169
0.998904
0.99917
0.999654
0.999838
0.999836
0.999641
0.999169
0.998968
0.999231
0.999433
1.00004
1.00039
1.00098
1.00117
1.00179
1.00245
1.00166
0.996457
0.974069
0.914527
0.793039
0.60559
0.385408
0.192187
0.0679048
0.0126903
0 
0 
0 
0 
0 
0 
0 
9.26591e-05
9.23524e-05
0 
2.87957e-05
8.69661e-05
8.12652e-05
0 
0 
0 
0 
0 
0 
0.00282183
0.0373019
0.132927
0.307054
0.531667
0.7423
0.889239
0.965098
0.994274
1.00137
1.00246
1.00177
1.00105
1.00096
1.00016
0.999734
0.999276
0.999272
0.99926
0.999418
0.999678
0.999827
0.999913
0.99991
0.999817
0.999667
0.999423
0.999283
0.999275
0.999268
0.999714
1.00013
1.00093
1.00103
1.00176
1.00246
1.00137
0.994267
0.965091
0.88923
0.742289
0.531656
0.307045
0.132921
0.0372998
0.00282134
0 
0 
0 
0 
0 
0 
8.12655e-05
8.69691e-05
2.87922e-05
5.5162e-05
6.62104e-05
0 
0 
0 
0 
0 
0 
0 
0.0152207
0.0787618
0.220859
0.436273
0.666981
0.846298
0.947572
0.989228
1.0005
1.00242
1.00177
1.00093
1.00078
0.99976
0.999277
0.998748
0.998678
0.998792
0.999186
0.999441
0.999525
0.999665
0.999792
0.999792
0.999664
0.999518
0.999417
0.999179
0.998778
0.998672
0.998719
0.999242
0.999726
1.00075
1.00092
1.00176
1.00241
1.00049
0.989221
0.947564
0.846288
0.666969
0.436262
0.220851
0.0787581
0.0152196
0 
0 
0 
0 
0 
0 
0 
6.62066e-05
5.51638e-05
7.55848e-05
4.60197e-05
0 
0 
0 
0 
0 
0 
0.00261544
0.0373768
0.138537
0.326317
0.564823
0.77887
0.916037
0.978835
0.998399
1.00217
1.00173
1.00087
1.0005
0.999357
0.998729
0.99802