# vtk DataFile Version 3.0
fluid_state
ASCII
DATASET RECTILINEAR_GRID
DIMENSIONS 64 256 1 
X_COORDINATES 64 float
0 1 2 3 4 5 6 7 8 9 10 11 12 13 14 15 16 17 18 19 20 21 22 23 24 25 26 27 28 29 30 31 32 33 34 35 36 37 38 39 40 41 42 43 44 45 46 47 48 49 50 51 52 53 54 55 56 57 58 59 60 61 62 63 
Y_COORDINATES 256 float
0 1 2 3 4 5 6 7 8 9 10 11 12 13 14 15 16 17 18 19 20 21 22 23 24 25 26 27 28 29 30 31 32 33 34 35 36 37 38 39 40 41 42 43 44 45 46 47 48 49 50 51 52 53 54 55 56 57 58 59 60 61 62 63 64 65 66 67 68 69 70 71 72 73 74 75 76 77 78 79 80 81 82 83 84 85 86 87 88 89 90 91 92 93 94 95 96 97 98 99 100 101 102 103 104 105 106 107 108 109 110 111 112 113 114 115 116 117 118 119 120 121 122 123 124 125 126 127 128 129 130 131 132 133 134 135 136 137 138 139 140 141 142 143 144 145 146 147 148 149 150 151 152 153 154 155 156 157 158 159 160 161 162 163 164 165 166 167 168 169 170 171 172 173 174 175 176 177 178 179 180 181 182 183 184 185 186 187 188 189 190 191 192 193 194 195 196 197 198 199 200 201 202 203 204 205 206 207 208 209 210 211 212 213 214 215 216 217 218 219 220 221 222 223 224 225 226 227 228 229 230 231 232 233 234 235 236 237 238 239 240 241 242 243 244 245 246 247 248 249 250 251 252 253 254 255 
Z_COORDINATES 1 float
0 
POINT_DATA 16384
SCALARS phase float 1
LOOKUP_TABLE default
0 
0 
0 
0 
0 
0 
0 
0 
0 
0 
0 
0 
0 
0 
0 
0 
0 
0 
0 
0 
0 
0 
0 
0 
0 
0 
0 
0 
0 
0 
0 
0 
0 
0 
0 
0 
0 
0 
0 
0 
0 
0 
0 
0 
0 
0 
0 
0 
0 
0 
0 
0 
0 
0 
0 
0 
0 
0 
0 
0 
0 
0 
0 
0 
0 
0 
0 
0 
0 
0 
0 
0 
0 
0 
0 
0 
0 
0 
0 
0 
0 
0 
0 
0 
0 
0 
0 
0 
0 
0 
0 
0 
0 
0 
0 
0 
0 
0 
0 
0 
0 
0 
0 
0 
0 
0 
0 
0 
0 
0 
0 
0 
0 
0 
0 
0 
0 
0 
0 
0 
0 
0 
0 
0 
0 
0 
0 
0 
0 
0 
0 
0 
0 
0 
0 
0 
0 
0 
0 
0 
0 
0 
0 
0 
0 
0 
0 
0 
0 
0 
0 
0 
0 
0 
0 
0 
0 
0 
0 
0 
0 
0 
0 
0 
0 
0 
0 
0 
0 
0 
0 
0 
0 
0 
0 
0 
0 
0 
0 
0 
0 
0 
0 
0 
0 
0 
0 
0 
0 
0 
0 
0 
0 
0 
0 
0 
0 
0 
0 
0 
0 
0 
0 
0 
0 
0 
0 
0 
0 
0 
0 
0 
0 
0 
0 
0 
0 
0 
0 
0 
0 
0 
0 
0 
0 
0 
0 
0 
0 
0 
0 
0 
0 
0 
0 
0 
0 
0 
0 
0 
0 
0 
0 
0 
0 
0 
0 
0 
0 
0 
0 
0 
0 
0 
0 
0 
0 
0 
0 
0 
0 
0 
0 
0 
0 
0 
0 
0 
0 
0 
0 
0 
0 
0 
0 
0 
0 
0 
0 
0 
0 
0 
0 
0 
0 
0 
0 
0 
0 
0 
0 
0 
0 
0 
0 
0 
0 
0 
0 
0 
0 
0 
0 
0 
0 
0 
0 
0 
0 
0 
0 
0 
0 
0 
0 
0 
0 
0 
0 
0 
0 
0 
0 
0 
0 
0 
0 
0 
0 
0 
0 
0 
0 
0 
0 
0 
0 
0 
0 
0 
0 
0 
0 
0 
0 
0 
0 
0 
0 
0 
0 
0 
0 
0 
0 
0 
0 
0 
0 
0 
0 
0 
0 
0 
0 
0 
0 
0 
0 
0 
0 
0 
0 
0 
0 
0 
0 
0 
0 
0 
0 
0 
0 
0 
0 
0 
0 
0 
0 
0 
0 
0 
0 
0 
0 
0 
0 
0 
0 
0 
0 
0 
0 
0 
0 
0 
0 
0 
0 
0 
0 
0 
0 
0 
0 
0 
0 
0 
0 
0 
0 
0 
0 
0 
0 
0 
0 
0 
0 
0 
0 
0 
0 
0 
0 
0 
0 
0 
0 
0 
0 
0 
0 
0 
0 
0 
0 
0 
0 
0 
0 
0 
0 
0 
0 
0 
0 
0 
0 
0 
0 
0 
0 
0 
0 
0 
0 
0 
0 
0 
0 
0 
0 
0 
0 
0 
0 
0 
0 
0 
0 
0 
0 
0 
0 
0 
0 
0 
0 
0 
0 
0 
0 
0 
0 
0 
0 
0 
0 
0 
0 
0 
0 
0 
0 
0 
0 
0 
0 
0 
0 
0 
0 
0 
0 
0 
0 
0 
0 
0 
0 
0 
0 
0 
0 
0 
0 
0 
0 
0 
0 
0 
0 
0 
0 
0 
0 
0 
0 
0 
0 
0 
0 
0 
0 
0 
0 
0 
0 
0 
0 
0 
0 
0 
0 
0 
0 
0 
0 
0 
0 
0 
0 
0 
0 
0 
0 
0 
0 
0 
0 
0 
0 
0 
0 
0 
0 
0 
0 
0 
0 
0 
0 
0 
0 
0 
0 
0 
0 
0 
0 
0 
0 
0 
0 
0 
0 
0 
0 
0 
0 
0 
0 
0 
0 
0 
0 
0 
0 
0 
0 
0 
0 
0 
0 
0 
0 
0 
0 
0 
0 
0 
0 
0 
0 
0 
0 
0 
0 
0 
0 
0 
0 
0 
0 
0 
0 
0 
0 
0 
0 
0 
0 
0 
0 
0 
0 
0 
0 
0 
0 
0 
0 
0 
0 
0 
0 
0 
0 
0 
0 
0 
0 
0 
0 
0 
0 
0 
0 
0 
0 
0 
0 
0 
0 
0 
0 
0 
0 
0 
0 
0 
0 
0 
0 
0 
0 
0 
0 
0 
0 
0 
0 
0 
0 
0 
0 
0 
0 
0 
0 
0 
0 
0 
0 
0 
0 
0 
0 
0 
0 
0 
0 
0 
0 
0 
0 
0 
0 
0 
0 
0 
0 
0 
0 
0 
0 
0 
0 
0 
0 
0 
0 
0 
0 
0 
0 
0 
0 
0 
0 
0 
0 
0 
0 
0 
0 
0 
0 
0 
0 
0 
0 
0 
0 
0 
0 
0 
0 
0 
0 
0 
0 
0 
0 
0 
0 
0 
0 
0 
0 
0 
0 
0 
0 
0 
0 
0 
0 
0 
0 
0 
0 
0 
0 
0 
0 
0 
0 
0 
0 
0 
0 
0 
0 
0 
0 
0 
0 
0 
0 
0 
0 
0 
0 
0 
0 
0 
0 
0 
0 
0 
0 
0 
0 
0 
0 
0 
0 
0 
0 
0 
0 
0 
0 
0 
0 
0 
0 
0 
0 
0 
0 
0 
0 
0 
0 
0 
0 
0 
0 
0 
0 
0 
0 
0 
0 
0 
0 
0 
0 
0 
0 
0 
0 
0 
0 
0 
0 
0 
0 
0 
0 
0 
0 
0 
0 
0 
0 
0 
0 
0 
0 
0 
0 
0 
0 
0 
0 
0 
0 
0 
0 
0 
0 
0 
0 
0 
0 
0 
0 
0 
0 
0 
0 
0 
0 
0 
0 
0 
0 
0 
0 
0 
0 
0 
0 
0 
0 
0 
0 
0 
0 
0 
0 
0 
0 
0 
0 
0 
0 
0 
0 
0 
0 
0 
0 
0 
0 
0 
0 
0 
0 
0 
0 
0 
0 
0 
0 
0 
0 
0 
0 
0 
0 
0 
0 
0 
0 
0 
0 
0 
0 
0 
0 
0 
0 
0 
0 
0 
0 
0 
0 
0 
0 
0 
0 
0 
0 
0 
0 
0 
0 
0 
0 
0 
0 
0 
0 
0 
0 
0 
0 
0 
0 
0 
0 
0 
0 
0 
0 
0 
0 
0 
0 
0 
0 
0 
0 
0 
0 
0 
0 
0 
0 
0 
0 
0 
0 
0 
0 
0 
0 
0 
0 
0 
0 
0 
0 
0 
0 
0 
0 
0 
0 
0 
0 
0 
0 
0 
0 
0 
0 
0 
0 
0 
0 
0 
0 
0 
0 
0 
0 
0 
0 
0 
0 
0 
0 
0 
0 
0 
0 
0 
0 
0 
0 
0 
0 
0 
0 
0 
0 
0 
0 
0 
0 
0 
0 
0 
0 
0 
0 
0 
0 
0 
0 
0 
0 
0 
0 
0 
0 
0 
0 
0 
0 
0 
0 
0 
0 
0 
0 
0 
0 
0 
0 
0 
0 
0 
0 
0 
0 
0 
0 
0 
0 
0 
0 
0 
0 
0 
0 
0 
0 
0 
0 
0 
0 
0 
0 
0 
0 
0 
0 
0 
0 
0 
0 
0 
0 
0 
0 
0 
0 
0 
0 
0 
0 
0 
0 
0 
0 
0 
0 
0 
0 
0 
0 
0 
0 
0 
0 
0 
0 
0 
0 
0 
0 
0 
0 
0 
0 
0 
0 
0 
0 
0 
0 
0 
0 
0 
0 
0 
0 
0 
0 
0 
0 
0 
0 
0 
0 
0 
0 
0 
0 
0 
0 
0 
0 
0 
0 
0 
0 
0 
0 
0 
0 
0 
0 
0 
0 
0 
0 
0 
0 
0 
0 
0 
0 
0 
0 
0 
0 
0 
0 
0 
0 
0 
0 
0 
0 
0 
0 
0 
0 
0 
0 
0 
0 
0 
0 
0 
0 
0 
0 
0 
0 
0 
0 
0 
0 
0 
0 
0 
0 
0 
0 
0 
0 
0 
0 
0 
0 
0 
0 
0 
0 
0 
0 
0 
0 
0 
0 
0 
0 
0 
0 
0 
0 
0 
0 
0 
0 
0 
0 
0 
0 
0 
0 
0 
0 
0 
0 
0 
0 
0 
0 
0 
0 
0 
0 
0 
0 
0 
0 
0 
0 
0 
0 
0 
0 
0 
0 
0 
0 
0 
0 
0 
0 
0 
0 
0 
0 
0 
0 
0 
0 
0 
0 
0 
0 
0 
0 
0 
0 
0 
0 
0 
0 
0 
0 
0 
0 
0 
0 
0 
0 
0 
0 
0 
0 
0 
0 
0 
0 
0 
0 
0 
0 
0 
0 
0 
0 
0 
0 
0 
0 
0 
0 
0 
0 
0 
0 
0 
0 
0 
0 
0 
0 
0 
0 
0 
0 
0 
0 
0 
0 
0 
0 
0 
0 
0 
0 
0 
0 
0 
0 
0 
0 
0 
0 
0 
0 
0 
0 
0 
0 
0 
0 
0 
0 
0 
0 
0 
0 
0 
0 
0 
0 
0 
0 
0 
0 
0 
0 
0 
0 
0 
0 
0 
0 
0 
0 
0 
0 
0 
0 
0 
0 
0 
0 
0 
0 
0 
0 
0 
0 
0 
0 
0 
0 
0 
0 
0 
0 
0 
0 
0 
0 
0 
0 
0 
0 
0 
0 
0 
0 
0 
0 
0 
0 
0 
0 
0 
0 
0 
0 
0 
0 
0 
0 
0 
0 
0 
0 
0 
0 
0 
0 
0 
0 
0 
0 
0 
0 
0 
0 
0 
0 
0 
0 
0 
0 
0 
0 
0 
0 
0 
0 
0 
0 
0 
0 
0 
0 
0 
0 
0 
0 
0 
0 
0 
0 
0 
0 
0 
0 
0 
0 
0 
0 
0 
0 
0 
0 
0 
0 
0 
0 
0 
0 
0 
0 
0 
0 
0 
0 
0 
0 
0 
0 
0 
0 
0 
0 
0 
0 
0 
0 
0 
0 
0 
0 
0 
0 
0 
0 
0 
0 
0 
0 
0 
0 
0 
0 
0 
0 
0 
0 
0 
0 
0 
0 
0 
0 
0 
0 
0 
0 
0 
0 
0 
0 
0 
0 
0 
0 
0 
0 
0 
0 
0 
0 
0 
0 
0 
0 
0 
0 
0 
0 
0 
0 
0 
0 
0 
0 
0 
0 
0 
0 
0 
0 
0 
0 
0 
0 
0 
0 
0 
0 
0 
0 
0 
0 
0 
0 
0 
0 
0 
0 
0 
0 
0 
0 
0 
0 
0 
0 
0 
0 
0 
0 
0 
0 
0 
0 
0 
0 
0 
0 
0 
0 
0 
0 
0 
0 
0 
0 
0 
0 
0 
0 
0 
0 
0 
0 
0 
0 
0 
0 
0 
0 
0 
0 
0 
0 
0 
0 
0 
0 
0 
0 
0 
0 
0 
0 
0 
0 
0 
0 
0 
0 
0 
0 
0 
0 
0 
0 
0 
0 
0 
0 
0 
0 
0 
0 
0 
0 
0 
0 
0 
0 
0 
0 
0 
0 
0 
0 
0 
0 
0 
0 
0 
0 
0 
0 
0 
0 
0 
0 
0 
0 
0 
0 
0 
0 
0 
0 
0 
0 
0 
0 
0 
0 
0 
0 
0 
0 
0 
0 
0 
0 
0 
0 
0 
0 
0 
0 
0 
0 
0 
0 
0 
0 
0 
0 
0 
0 
0 
0 
0 
0 
0 
0 
0 
0 
0 
0 
0 
0 
0 
0 
0 
0 
0 
0 
0 
0 
0 
0 
0 
0 
0 
0 
0 
0 
0 
0 
0 
0 
0 
0 
0 
0 
0 
0 
0 
0 
0 
0 
0 
0 
0 
0 
0 
0 
0 
0 
0 
0 
0 
0 
0 
0 
0 
0 
0 
0 
0 
0 
0 
0 
0 
0 
0 
0 
0 
0 
0 
0 
0 
0 
0 
0 
0 
0 
0 
0 
0 
0 
0 
0 
0 
0 
0 
0 
0 
0 
0 
0 
0 
0 
0 
0 
0 
0 
0 
0 
0 
0 
0 
0 
0 
0 
0 
0 
0 
0 
0 
0 
0 
0 
0 
0 
0 
0 
0 
0 
0 
0 
0 
0 
0 
0 
0 
0 
0 
0 
0 
0 
0 
0 
0 
0 
0 
0 
0 
0 
0 
0 
0 
0 
0 
0 
0 
0 
0 
0 
0 
0 
0 
0 
0 
0 
0 
0 
0 
0 
0 
0 
0 
0 
0 
0 
0 
0 
0 
0 
0 
0 
0 
0 
0 
0 
0 
0 
0 
0 
0 
0 
0 
0 
0 
0 
0 
0 
0 
0 
0 
0 
0 
0 
0 
0 
0 
0 
0 
0 
0 
0 
0 
0 
0 
0 
0 
0 
0 
0 
0 
0 
0 
0 
0 
0 
0 
0 
0 
0 
0 
0 
0 
0 
0 
0 
0 
0 
0 
0 
0 
0 
0 
0 
0 
0 
0 
0 
0 
0 
0 
0 
0 
0 
0 
0 
0 
0 
0 
0 
0 
0 
0 
0 
0 
0 
0 
0 
0 
0 
0 
0 
0 
0 
0 
0 
0 
0 
0 
0 
0 
0 
0 
0 
0 
0 
0 
0 
0 
0 
0 
0 
0 
0 
0 
0 
0 
0 
0 
0 
0 
0 
0 
0 
0 
0 
0 
0 
0 
0 
0 
0 
0 
0 
0 
0 
0 
0 
0 
0 
0 
0 
0 
0 
0 
0 
0 
0 
0 
0 
0 
0 
0 
0 
0 
0 
0 
0 
0 
0 
0 
0 
0 
0 
0 
0 
0 
0 
0 
0 
0 
0 
0 
0 
0 
0 
0 
0 
0 
0 
0 
0 
0 
0 
0 
0 
0 
0 
0 
0 
0 
0 
0 
0 
0 
0 
0 
0 
0 
0 
0 
0 
0 
0 
0 
0 
0 
0 
0 
0 
0 
0 
0 
0 
0 
0 
0 
0 
0 
0 
0 
0 
0 
0 
0 
0 
0 
0 
0 
0 
0 
0 
0 
0 
0 
0 
0 
0 
0 
0 
0 
0 
0 
0 
0 
0 
0 
0 
0 
0 
0 
0 
0 
0 
0 
0 
0 
0 
0 
0 
0 
0 
0 
0 
0 
0 
0 
0 
0 
0 
0 
0 
0 
0 
0 
0 
0 
0 
0 
0 
0 
0 
0 
0 
0 
0 
0 
0 
0 
0 
0 
0 
0 
0 
0 
0 
0 
0 
0 
0 
0 
0 
0 
0 
0 
0 
0 
0 
0 
0 
0 
0 
0 
0 
0 
0 
0 
0 
0 
0 
0 
0 
0 
0 
0 
0 
0 
0 
0 
0 
0 
0 
0 
0 
0 
0 
0 
0 
0 
0 
0 
0 
0 
0 
0 
0 
0 
0 
0 
0 
0 
0 
0 
0 
0 
0 
0 
0 
0 
0 
0 
0 
0 
0 
0 
0 
0 
0 
0 
0 
0 
0 
0 
0 
0 
0 
0 
0 
0 
0 
0 
0 
0 
0 
0 
0 
0 
0 
0 
0 
0 
0 
0 
0 
0 
0 
0 
0 
0 
0 
0 
0 
0 
0 
0 
0 
0 
0 
0 
0 
0 
0 
0 
0 
0 
0 
0 
0 
0 
0 
0 
0 
0 
0 
0 
0 
0 
0 
0 
0 
0 
0 
0 
0 
0 
0 
0 
0 
0 
0 
0 
0 
0 
0 
0 
0 
0 
0 
0 
0 
0 
0 
0 
0 
0 
0 
0 
0 
0 
0 
0 
0 
0 
0 
0 
0 
0 
0 
0 
0 
0 
0 
0 
0 
0 
0 
0 
0 
0 
0 
0 
0 
0 
0 
0 
0 
0 
0 
0 
0 
0 
0 
0 
0 
0 
0 
0 
0 
0 
0 
0 
0 
0 
0 
0 
0 
0 
0 
0 
0 
0 
0 
0 
0 
0 
0 
0 
0 
0 
0 
0 
0 
0 
0 
0 
0 
0 
0 
0 
0 
0 
0 
0 
0 
0 
0 
0 
0 
0 
0 
0 
0 
0 
0 
0 
0 
0 
0 
0 
0 
0 
0 
0 
0 
0 
0 
0 
0 
0 
0 
0 
0 
0 
0 
0 
0 
0 
0 
0 
0 
0 
0 
0 
0 
0 
0 
0 
0 
0 
0 
0 
0 
0 
0 
0 
0 
0 
0 
0 
0 
0 
0 
0 
0 
0 
0 
0 
0 
0 
0 
0 
0 
0 
0 
0 
0 
0 
0 
0 
0 
0 
0 
0 
0 
0 
0 
0 
0 
0 
0 
0 
0 
0 
0 
0 
0 
0 
0 
0 
0 
0 
0 
0 
0 
0 
0 
0 
0 
0 
0 
0 
0 
0 
0 
0 
0 
0 
0 
0 
0 
0 
0 
0 
0 
0 
0 
0 
0 
0 
0 
0 
0 
0 
0 
0 
0 
0 
0 
0 
0 
0 
0 
0 
0 
0 
0 
0 
0 
0 
0 
0 
0 
0 
0 
0 
0 
0 
0 
0 
0 
0 
0 
0 
0 
0 
0 
0 
0 
1.04312e-12
0 
1.0859e-12
0 
0 
0 
0 
0 
0 
0 
0 
0 
0 
0 
0 
0 
0 
0 
0 
0 
0 
0 
0 
0 
0 
0 
0 
0 
0 
0 
0 
1.08592e-12
0 
1.04314e-12
0 
0 
0 
0 
0 
0 
0 
0 
0 
0 
0 
0 
0 
0 
0 
0 
0 
0 
0 
0 
0 
0 
0 
0 
0 
0 
0 
0 
0 
1.1307e-12
0 
2.03157e-12
0 
1.52286e-12
0 
0 
0 
0 
0 
0 
0 
0 
0 
0 
0 
0 
0 
0 
0 
0 
0 
0 
0 
0 
0 
0 
0 
0 
0 
0 
1.52279e-12
0 
2.03151e-12
0 
1.13068e-12
0 
0 
0 
0 
0 
0 
0 
0 
0 
0 
0 
0 
0 
0 
0 
0 
0 
0 
0 
0 
0 
0 
0 
0 
0 
0 
0 
0 
0 
2.59467e-12
0 
3.46764e-12
0 
1.61703e-12
0 
0 
1.21592e-12
0 
0 
0 
0 
0 
0 
0 
0 
0 
0 
0 
0 
0 
0 
0 
0 
0 
0 
1.21593e-12
0 
0 
1.61703e-12
0 
3.46773e-12
0 
2.59473e-12
0 
0 
0 
0 
0 
0 
0 
0 
0 
0 
0 
0 
0 
0 
0 
0 
0 
0 
0 
0 
0 
0 
0 
0 
0 
0 
0 
0 
0 
2.21795e-12
0 
5.39804e-12
0 
5.36291e-12
0 
0 
1.53694e-12
0 
1.3543e-12
0 
0 
0 
0 
0 
0 
0 
0 
0 
0 
0 
0 
0 
0 
0 
0 
1.35428e-12
0 
1.53697e-12
0 
0 
5.36271e-12
0 
5.39796e-12
0 
2.21794e-12
0 
0 
0 
0 
0 
0 
0 
0 
0 
0 
0 
0 
0 
0 
0 
0 
0 
0 
0 
0 
0 
0 
0 
0 
0 
0 
0 
1.19367e-12
0 
5.55959e-12
0 
9.90877e-12
0 
6.44654e-12
0 
0 
3.31769e-12
0 
0 
0 
0 
0 
0 
0 
0 
0 
0 
0 
0 
0 
0 
0 
0 
0 
0 
3.31772e-12
0 
0 
6.44654e-12
0 
9.90909e-12
0 
5.55979e-12
0 
1.19369e-12
0 
0 
0 
0 
0 
0 
0 
0 
0 
0 
0 
0 
0 
0 
0 
0 
0 
0 
0 
0 
0 
0 
0 
0 
0 
0 
0 
3.50204e-12
0 
1.24292e-11
0 
1.66587e-11
0 
4.54343e-12
3.02515e-12
0 
3.99559e-12
0 
0 
0 
0 
0 
0 
0 
0 
0 
0 
0 
0 
0 
0 
0 
0 
3.99551e-12
0 
3.02526e-12
4.54337e-12
0 
1.66583e-11
0 
1.24292e-11
0 
3.50208e-12
0 
0 
0 
0 
0 
0 
0 
0 
0 
0 
0 
0 
0 
0 
0 
0 
0 
0 
0 
0 
0 
0 
0 
0 
1.2927e-12
0 
0 
0 
0 
1.00335e-11
0 
2.43572e-11
0 
2.20331e-11
0 
0 
8.42293e-12
0 
2.77857e-12
0 
0 
0 
0 
0 
0 
0 
0 
0 
0 
0 
0 
0 
0 
2.77843e-12
0 
8.42299e-12
0 
0 
2.20331e-11
0 
2.43582e-11
0 
1.00341e-11
0 
0 
0 
0 
1.2926e-12
0 
0 
0 
0 
0 
0 
0 
0 
0 
0 
0 
0 
0 
0 
0 
0 
0 
0 
0 
1.35987e-12
0 
3.56502e-12
0 
0 
4.16298e-12
0 
2.44607e-11
0 
4.49715e-11
0 
1.86289e-11
4.39619e-12
0 
1.10167e-11
0 
0 
0 
0 
0 
0 
0 
0 
0 
0 
0 
0 
0 
0 
0 
0 
1.10164e-11
0 
4.39651e-12
1.86288e-11
0 
4.49709e-11
0 
2.44609e-11
0 
4.16312e-12
0 
0 
3.56496e-12
0 
1.35984e-12
0 
0 
0 
0 
0 
0 
0 
0 
0 
0 
0 
0 
0 
0 
0 
0 
0 
0 
0 
4.99549e-12
0 
7.0409e-12
0 
1.27613e-12
1.62961e-11
0 
5.09829e-11
0 
6.74628e-11
0 
4.13244e-12
1.96279e-11
0 
8.22985e-12
0 
0 
0 
0 
0 
0 
0 
0 
0 
0 
0 
0 
0 
0 
8.22943e-12
0 
1.9628e-11
4.1324e-12
0 
6.74627e-11
0 
5.09853e-11
0 
1.62971e-11
1.27578e-12
0 
7.04059e-12
0 
4.99522e-12
0 
0 
0 
0 
0 
0 
0 
0 
0 
0 
0 
0 
0 
0 
0 
0 
0 
0 
0 
3.7197e-12
0 
1.36163e-11
0 
1.18776e-11
0 
2.39824e-12
4.03851e-11
0 
1.07753e-10
0 
6.26904e-11
0 
0 
2.88287e-11
0 
1.87838e-12
0 
0 
0 
1.48314e-12
0 
0 
0 
0 
1.48338e-12
0 
0 
0 
1.87811e-12
0 
2.88281e-11
0 
0 
6.26908e-11
0 
1.07753e-10
0 
4.03853e-11
2.39791e-12
0 
1.18777e-11
0 
1.36161e-11
0 
3.71961e-12
0 
0 
0 
0 
0 
0 
0 
0 
0 
0 
0 
0 
0 
0 
1.04696e-12
0 
0 
0 
0 
1.46334e-11
0 
2.82566e-11
0 
2.71674e-11
1.50213e-11
0 
7.95238e-11
0 
1.83824e-10
0 
2.79552e-11
3.9134e-11
0 
2.41947e-11
0 
0 
2.8079e-12
0 
0 
0 
0 
0 
0 
0 
0 
2.80804e-12
0 
0 
2.41937e-11
0 
3.91342e-11
2.79549e-11
0 
1.83824e-10
0 
7.953e-11
0 
1.50234e-11
2.71669e-11
0 
2.82562e-11
0 
1.46326e-11
0 
0 
0 
0 
1.04687e-12
0 
0 
0 
0 
0 
0 
0 
0 
0 
1.67832e-12
0 
0 
0 
0 
8.10541e-12
0 
4.01165e-11
0 
5.60926e-11
0 
5.74752e-11
3.78646e-11
0 
2.18393e-10
0 
1.92489e-10
0 
0 
7.02062e-11
0 
6.39947e-12
4.35311e-12
0 
2.2735e-12
2.25026e-12
0 
0 
0 
0 
2.25131e-12
2.27304e-12
0 
4.35337e-12
6.39915e-12
0 
7.0205e-11
0 
0 
1.9249e-10
0 
2.18396e-10
0 
3.78642e-11
5.74739e-11
0 
5.60931e-11
0 
4.01161e-11
0 
8.10514e-12
0 
0 
0 
0 
1.67822e-12
0 
0 
0 
0 
0 
0 
0 
1.91945e-12
0 
2.14091e-12
0 
0 
0 
0 
3.28641e-11
0 
8.52141e-11
0 
1.38556e-10
0 
7.69703e-11
7.66978e-11
0 
4.56054e-10
0 
1.25855e-10
6.95213e-11
0 
6.5915e-11
0 
0 
1.24667e-11
0 
0 
0 
0 
0 
0 
0 
0 
1.24665e-11
0 
0 
6.59129e-11
0 
6.95212e-11
1.25855e-10
0 
4.56057e-10
0 
7.6706e-11
7.69626e-11
0 
1.38554e-10
0 
8.52144e-11
0 
3.2863e-11
0 
0 
0 
0 
2.1407e-12
0 
1.91938e-12
0 
0 
0 
0 
0 
1.6081e-12
0 
3.36702e-12
0 
0 
0 
0 
1.31011e-11
0 
9.1024e-11
0 
1.99156e-10
0 
2.94841e-10
0 
1.00163e-11
4.30822e-10
0 
5.4916e-10
0 
0 
1.72746e-10
0 
2.16768e-11
1.66421e-11
0 
1.0871e-11
1.25573e-12
0 
0 
0 
0 
1.25962e-12
1.08684e-11
0 
1.66424e-11
2.16769e-11
0 
1.72744e-10
0 
0 
5.49167e-10
0 
4.30831e-10
1.00093e-11
0 
2.94836e-10
0 
1.99156e-10
0 
9.10245e-11
0 
1.31007e-11
0 
0 
0 
0 
3.36676e-12
0 
1.60808e-12
0 
0 
1.0584e-12
0 
0 
3.51022e-12
0 
3.06628e-12
0 
0 
0 
0 
6.20624e-11
0 
2.28494e-10
0 
5.16198e-10
0 
3.97713e-10
0 
0 
1.05813e-09
0 
4.31037e-10
1.02128e-10
0 
1.88867e-10
0 
0 
4.19349e-11
0 
0 
0 
0 
0 
0 
0 
0 
4.19326e-11
0 
0 
1.88863e-10
0 
1.02129e-10
4.31038e-10
0 
1.05814e-09
0 
0 
3.97697e-10
0 
5.1619e-10
0 
2.28495e-10
0 
6.20619e-11
0 
0 
0 
0 
3.06588e-12
0 
3.51002e-12
0 
0 
1.05827e-12
1.30163e-12
2.66623e-12
2.23441e-12
0 
4.34747e-12
0 
0 
0 
0 
2.19602e-11
0 
1.94012e-10
0 
5.98621e-10
0 
9.87176e-10
0 
3.3792e-10
7.06252e-10
0 
1.4133e-09
0 
7.69925e-11
4.0594e-10
0 
8.47622e-11
4.55284e-11
0 
3.54983e-11
0 
0 
0 
0 
0 
0 
3.54871e-11
0 
4.55275e-11
8.47653e-11
0 
4.0594e-10
7.69874e-11
0 
1.41331e-09
0 
7.06271e-10
3.37911e-10
0 
9.8717e-10
0 
5.9862e-10
0 
1.94014e-10
0 
2.19602e-11
0 
0 
0 
0 
4.34701e-12
0 
2.23428e-12
2.66611e-12
1.3018e-12
4.87199e-12
0 
0 
2.67669e-12
0 
1.86744e-12
0 
0 
0 
0 
1.17019e-10
0 
5.43965e-10
0 
1.4714e-09
0 
1.40181e-09
0 
6.74891e-11
2.29237e-09
0 
1.31685e-09
3.65615e-11
0 
5.16224e-10
0 
0 
1.21155e-10
0 
2.23183e-12
0 
0 
0 
0 
2.21286e-12
0 
1.21143e-10
0 
0 
5.16222e-10
0 
3.65659e-11
1.31686e-09
0 
2.2924e-09
6.7444e-11
0 
1.40177e-09
0 
1.47138e-09
0 
5.43967e-10
0 
1.17018e-10
0 
0 
0 
0 
1.86712e-12
0 
2.67635e-12
0 
0 
4.87165e-12
4.57004e-12
6.1016e-12
0 
0 
1.93483e-12
0 
0 
0 
0 
4.61784e-11
0 
3.74889e-10
0 
1.45811e-09
0 
2.77551e-09
0 
1.89114e-09
8.77353e-10
0 
3.68885e-09
0 
4.8499e-10
9.19502e-10
0 
2.9025e-10
1.11188e-10
0 
1.04755e-10
0 
0 
0 
0 
0 
0 
1.04716e-10
0 
1.11181e-10
2.90264e-10
0 
9.1951e-10
4.8497e-10
0 
3.68888e-09
0 
8.77391e-10
1.89109e-09
0 
2.77551e-09
0 
1.45811e-09
0 
3.74891e-10
0 
4.61736e-11
0 
0 
0 
0 
1.93447e-12
0 
0 
6.10128e-12
4.57053e-12
1.12392e-11
0 
0 
0 
0 
0 
0 
0 
0 
0 
2.19683e-10
0 
1.03902e-09
0 
3.45306e-09
0 
4.69888e-09
0 
2.21661e-09
4.89317e-09
0 
3.94829e-09
0 
0 
1.37919e-09
0 
0 
3.38028e-10
0 
2.19716e-11
0 
0 
0 
0 
2.19109e-11
0 
3.37989e-10
0 
0 
1.3792e-09
0 
0 
3.9483e-09
0 
4.89325e-09
2.21651e-09
0 
4.69878e-09
0 
3.45305e-09
0 
1.03904e-09
0 
2.19678e-10
0 
0 
0 
0 
0 
0 
0 
0 
0 
1.12384e-11
0 
8.41931e-12
0 
0 
0 
0 
0 
0 
5.15278e-12
1.33244e-10
1.15939e-10
4.913e-10
0 
2.55723e-09
0 
6.91901e-09
0 
8.48663e-09
0 
0 
9.36433e-09
0 
2.1629e-09
2.02858e-09
0 
9.19829e-10
2.40669e-10
0 
3.09204e-10
0 
0 
0 
0 
0 
0 
3.09094e-10
0 
2.40646e-10
9.19879e-10
0 
2.02862e-09
2.16284e-09
0 
9.36442e-09
0 
0 
8.48648e-09
0 
6.91904e-09
0 
2.5573e-09
0 
4.9133e-10
1.15919e-10
1.33229e-10
5.1383e-12
0 
0 
0 
0 
0 
0 
8.41841e-12
0 
5.39823e-12
0 
0 
0 
0 
0 
0 
8.85599e-12
9.56969e-11
3.70839e-10
1.68908e-10
1.56889e-10
9.64666e-10
0 
5.98249e-09
0 
1.46325e-08
0 
1.24495e-08
8.33554e-09
0 
1.14597e-08
0 
0 
3.65294e-09
0 
0 
9.09627e-10
0 
9.38627e-11
0 
0 
0 
0 
9.36957e-11
0 
9.09537e-10
0 
0 
3.65298e-09
0 
0 
1.14597e-08
0 
8.33579e-09
1.24492e-08
0 
1.46322e-08
0 
5.98256e-09
0 
9.64756e-10
1.56868e-10
1.6894e-10
3.70807e-10
9.56746e-11
8.85023e-12
0 
0 
0 
0 
0 
0 
5.39638e-12
0 
2.53767e-12
0 
0 
0 
0 
1.04585e-11
4.77196e-11
5.00235e-10
1.1376e-10
9.98757e-10
0 
0 
2.13211e-09
0 
1.37106e-08
0 
3.19441e-08
0 
5.51482e-09
2.09521e-08
0 
8.18195e-09
4.07417e-09
0 
2.85763e-09
4.18343e-10
0 
8.84693e-10
0 
0 
5.70152e-11
5.71646e-11
0 
0 
8.84438e-10
0 
4.18292e-10
2.85777e-09
0 
4.07432e-09
8.18179e-09
0 
2.09524e-08
5.5145e-09
0 
3.19436e-08
0 
1.37108e-08
0 
2.13231e-09
0 
0 
9.98734e-10
1.13801e-10
5.0019e-10
4.76875e-11
1.0462e-11
0 
0 
0 
0 
2.53612e-12
0 
0 
0 
0 
0 
0 
2.95418e-11
0 
5.37125e-10
2.97664e-10
1.50742e-09
0 
1.88137e-09
0 
0 
6.20735e-09
0 
3.75707e-08
0 
4.88357e-08
5.67222e-09
0 
3.16046e-08
0 
0 
9.32415e-09
0 
0 
2.3384e-09
0 
2.55771e-10
6.33569e-11
5.16295e-11
5.12992e-11
6.36613e-11
2.55395e-10
0 
2.33824e-09
0 
0 
9.32426e-09
0 
0 
3.16047e-08
0 
5.67286e-09
4.88348e-08
0 
3.75702e-08
0 
6.20753e-09
0 
0 
1.88135e-09
0 
1.50741e-09
2.97689e-10
5.37089e-10
0 
2.95439e-11
0 
0 
0 
0 
0 
0 
0 
0 
0 
0 
0 
4.50133e-10
3.76168e-10
1.71899e-09
0 
3.21445e-09
0 
2.45062e-09
0 
0 
1.78235e-08
0 
9.84117e-08
0 
3.39233e-08
4.11354e-08
0 
2.82927e-08
6.53337e-09
0 
7.91949e-09
1.41228e-10
0 
2.35478e-09
0 
0 
4.88653e-10
4.89118e-10
0 
0 
2.35434e-09
0 
1.41148e-10
7.91973e-09
0 
6.53379e-09
2.82924e-08
0 
4.11362e-08
3.39226e-08
0 
9.84106e-08
0 
1.7824e-08
0 
0 
2.45055e-09
0 
3.21442e-09
0 
1.71898e-09
3.76174e-10
4.50088e-10
0 
0 
0 
0 
0 
0 
0 
0 
0 
0 
0 
2.48417e-10
7.2208e-11
1.82153e-09
0 
3.81288e-09
0 
6.68477e-09
0 
1.27943e-09
0 
0 
7.72626e-08
0 
1.67446e-07
0 
0 
8.42665e-08
0 
1.51573e-10
2.25516e-08
0 
0 
4.77498e-09
0 
9.08558e-10
2.78892e-10
7.83017e-10
7.82109e-10
2.79498e-10
9.07861e-10
0 
4.77495e-09
0 
0 
2.25518e-08
1.51253e-10
0 
8.42669e-08
0 
0 
1.67444e-07
0 
7.72613e-08
0 
0 
1.27927e-09
0 
6.6847e-09
0 
3.81286e-09
0 
1.82149e-09
7.22189e-11
2.48397e-10
0 
0 
0 
0 
0 
0 
0 
0 
0 
3.37193e-11
0 
2.08666e-09
0 
3.94516e-09
0 
9.27957e-09
0 
1.2749e-08
0 
0 
3.26103e-11
0 
2.77878e-07
0 
1.52222e-07
7.35143e-08
0 
8.99287e-08
8.88114e-09
0 
1.92437e-08
0 
0 
4.27796e-09
0 
2.36275e-10
2.5456e-09
2.54688e-09
2.35275e-10
0 
4.27768e-09
0 
0 
1.92439e-08
0 
8.88221e-09
8.99284e-08
0 
7.35162e-08
1.52221e-07
0 
2.77875e-07
0 
3.3846e-11
0 
0 
1.27489e-08
0 
9.27948e-09
0 
3.94513e-09
0 
2.08657e-09
0 
3.3719e-11
0 
0 
0 
0 
0 
0 
0 
0 
0 
2.2257e-09
0 
4.51706e-09
0 
8.7921e-09
0 
1.92334e-08
0 
1.96974e-08
0 
0 
1.41585e-07
0 
5.10089e-07
0 
1.59234e-08
2.25995e-07
0 
1.78924e-08
5.34683e-08
0 
0 
4.73191e-09
0 
9.0628e-10
0 
4.17638e-09
4.17479e-09
0 
9.05668e-10
0 
4.73253e-09
0 
0 
5.34689e-08
1.78922e-08
0 
2.25997e-07
1.59214e-08
0 
5.10376e-07
0 
1.41577e-07
0 
0 
1.96978e-08
0 
1.92335e-08
0 
8.79205e-09
0 
4.51699e-09
0 
2.22562e-09
0 
0 
0 
0 
0 
0 
0 
0 
0 
1.64513e-09
0 
6.2974e-09
0 
7.3219e-09
0 
1.92625e-08
0 
3.2152e-08
0 
2.6655e-08
0 
0 
7.01405e-07
0 
5.57328e-07
9.51912e-08
0 
3.06614e-07
2.71792e-09
0 
4.30453e-08
0 
0 
5.49356e-09
0 
8.26599e-10
6.35134e-09
6.3526e-09
8.25526e-10
0 
5.49378e-09
0 
0 
4.30454e-08
0 
2.72069e-09
3.06614e-07
0 
9.51943e-08
5.57327e-07
0 
7.01404e-07
0 
0 
2.6655e-08
0 
3.21529e-08
0 
1.92625e-08
0 
7.32193e-09
0 
6.29737e-09
0 
1.64506e-09
0 
0 
0 
0 
0 
0 
0 
3.28777e-10
0 
8.22764e-09
0 
7.29928e-09
0 
1.33475e-08
0 
2.87754e-08
0 
3.52319e-08
0 
1.87159e-08
4.14189e-07
0 
1.35219e-06
0 
2.01425e-07
5.91056e-07
0 
1.70987e-07
1.53246e-07
0 
0 
9.80769e-09
0 
0 
0 
5.19579e-09
5.19575e-09
0 
0 
0 
9.80954e-09
0 
0 
1.5325e-07
1.70986e-07
0 
5.91059e-07
2.01418e-07
0 
1.35219e-06
0 
4.13894e-07
1.8713e-08
0 
3.52336e-08
0 
2.87759e-08
0 
1.33476e-08
0 
7.29952e-09
0 
8.22769e-09
0 
3.28726e-10
0 
0 
0 
0 
0 
5.63346e-10
0 
7.73078e-09
0 
9.21515e-09
0 
4.11511e-09
0 
1.50859e-08
0 
1.96059e-08
0 
8.73307e-08
0 
0 
1.54673e-06
0 
1.52086e-06
0 
0 
1.01227e-06
0 
0 
1.73668e-07
0 
0 
3.47657e-09
0 
0 
2.15474e-09
2.15222e-09
0 
0 
3.4769e-09
0 
0 
1.73672e-07
0 
0 
1.01227e-06
0 
0 
1.52085e-06
0 
1.54674e-06
0 
0 
8.73257e-08
0 
1.96079e-08
0 
1.50866e-08
0 
4.11544e-09
0 
9.21557e-09
0 
7.73085e-09
0 
5.63302e-10
0 
0 
0 
0 
0 
4.66399e-09
0 
1.34286e-08
0 
0 
0 
0 
0 
0 
0 
2.13094e-08
0 
5.1111e-07
8.73578e-07
0 
2.99077e-06
0 
6.28896e-07
1.0794e-06
0 
9.0232e-07
5.51888e-07
0 
0 
4.79954e-08
0 
0 
0 
0 
0 
0 
0 
0 
4.79983e-08
0 
0 
5.51889e-07
9.02315e-07
0 
1.07941e-06
6.28871e-07
0 
2.99078e-06
0 
8.73595e-07
5.1109e-07
0 
2.13106e-08
0 
0 
0 
0 
0 
0 
0 
1.34291e-08
0 
4.66401e-09
0 
0 
0 
0 
0 
1.43782e-09
0 
1.31001e-08
4.09162e-09
0 
0 
0 
0 
0 
0 
0 
0 
5.51762e-07
1.37523e-08
8.38731e-07
2.51647e-06
0 
4.07826e-06
0 
0 
2.45256e-06
0 
2.21309e-07
9.77412e-07
1.33512e-07
0 
0 
0 
0 
0 
0 
0 
0 
0 
0 
1.33514e-07
9.77422e-07
2.21288e-07
0 
2.45256e-06
0 
0 
4.07825e-06
0 
2.51653e-06
8.38703e-07
1.37699e-08
5.51739e-07
0 
0 
0 
0 
0 
0 
0 
0 
4.09108e-09
1.31007e-08
0 
1.43776e-09
0 
0 
0 
0 
0 
8.18444e-09
3.58546e-09
6.12195e-09
1.13143e-08
0 
0 
0 
0 
0 
0 
6.62197e-08
0 
2.68866e-06
3.39374e-07
0 
5.1636e-06
0 
2.36495e-06
5.36678e-07
0 
2.33499e-06
8.84556e-07
1.92502e-08
6.82644e-07
2.73282e-07
0 
0 
0 
0 
0 
0 
0 
0 
2.73288e-07
6.82657e-07
1.92433e-08
8.8456e-07
2.33498e-06
0 
5.3671e-07
2.36488e-06
0 
5.16365e-06
0 
3.39451e-07
2.68861e-06
0 
6.62158e-08
0 
0 
0 
0 
0 
0 
1.13138e-08
6.12295e-09
3.58499e-09
8.18477e-09
0 
0 
0 
0 
0 
3.10202e-09
0 
1.49818e-08
3.06414e-08
0 
0 
0 
0 
0 
0 
0 
0 
2.56745e-06
0 
3.38903e-06
8.95812e-07
0 
8.0474e-06
0 
0 
3.80143e-06
0 
2.05572e-07
2.96437e-06
1.34356e-06
2.09913e-07
0 
0 
0 
0 
0 
0 
0 
0 
2.09929e-07
1.34356e-06
2.9644e-06
2.05506e-07
0 
3.80145e-06
0 
0 
8.04741e-06
0 
8.95941e-07
3.38895e-06
0 
2.5674e-06
0 
0 
0 
0 
0 
0 
0 
0 
3.06399e-08
1.49825e-08
0 
3.10213e-09
0 
0 
0 
0 
0 
1.85369e-08
3.57825e-08
0 
5.98161e-08
0 
0 
0 
0 
0 
0 
1.31794e-06
0 
7.48483e-06
0 
0 
4.52702e-06
0 
4.9091e-06
0 
0 
3.22435e-06
0 
0 
4.1101e-06
2.88967e-06
3.36008e-07
0 
0 
0 
0 
0 
0 
3.35993e-07
2.8897e-06
4.11013e-06
0 
0 
3.2243e-06
0 
0 
4.909e-06
0 
4.52715e-06
0 
0 
7.4848e-06
0 
1.31788e-06
0 
0 
0 
0 
0 
0 
5.9816e-08
0 
3.57802e-08
1.85372e-08
0 
0 
0 
0 
0 
7.76526e-09
2.62394e-08
3.98645e-08
1.10818e-07
0 
0 
0 
0 
0 
0 
7.06064e-08
0 
9.25509e-06
0 
1.08674e-05
0 
0 
8.12838e-06
0 
0 
4.15542e-08
0 
0 
5.33147e-06
3.67388e-06
4.4042e-06
3.02671e-06
1.33984e-06
1.01381e-06
1.0618e-06
1.06158e-06
1.014e-06
1.3398e-06
3.02677e-06
4.40422e-06
3.67379e-06
5.33152e-06
0 
0 
4.15679e-08
0 
0 
8.12846e-06
0 
0 
1.08674e-05
0 
9.25502e-06
0 
7.05755e-08
0 
0 
0 
0 
0 
0 
1.10816e-07
3.98655e-08
2.62375e-08
7.76525e-09
0 
0 
0 
0 
1.79696e-08
9.17026e-08
1.4701e-07
0 
3.17475e-08
0 
0 
0 
0 
0 
0 
9.60802e-06
0 
2.04856e-05
0 
1.78071e-06
0 
0 
0 
0 
0 
0 
0 
0 
3.3529e-06
6.16492e-06
6.61751e-06
7.11026e-06
8.33611e-06
9.24519e-06
9.24574e-06
8.33572e-06
7.1107e-06
6.61737e-06
6.16488e-06
3.35289e-06
0 
0 
0 
0 
0 
0 
0 
0 
1.78048e-06
0 
2.04857e-05
0 
9.6079e-06
0 
0 
0 
0 
0 
0 
3.17534e-08
0 
1.47007e-07
9.17024e-08
1.79687e-08
0 
0 
0 
1.02095e-08
8.09526e-08
1.90764e-07
9.31347e-09
1.52314e-07
0 
0 
0 
0 
0 
0 
8.80147e-06
4.97063e-06
3.07274e-05
0 
1.74831e-05
0 
0 
0 
0 
0 
0 
0 
0 
0 
0 
0 
1.31367e-05
2.90755e-05
4.31269e-05
5.12692e-05
5.12683e-05
4.31279e-05
2.90753e-05
1.31369e-05
0 
0 
0 
0 
0 
0 
0 
0 
0 
0 
0 
1.74831e-05
0 
3.07275e-05
4.97075e-06
8.80131e-06
0 
0 
0 
0 
0 
0 
1.52317e-07
9.31639e-09
1.9076e-07
8.09512e-08
1.02097e-08
0 
0 
3.06335e-08
2.37454e-07
1.26129e-07
2.67651e-07
0 
0 
0 
0 
0 
0 
6.92959e-06
1.43357e-05
4.4717e-05
0 
2.61513e-05
0 
0 
0 
0 
0 
0 
0 
0 
0 
0 
0 
5.36562e-06
9.52124e-05
0.000189824
0.000269709
0.000315591
0.000315593
0.000269708
0.000189826
9.52119e-05
5.36533e-06
0 
0 
0 
0 
0 
0 
0 
0 
0 
0 
0 
2.61516e-05
0 
4.47171e-05
1.43357e-05
6.92938e-06
0 
0 
0 
0 
0 
0 
2.67648e-07
1.26132e-07
2.37449e-07
3.0632e-08
0 
0 
2.3852e-07
2.10526e-07
3.77072e-07
0 
0 
0 
0 
0 
0 
4.47579e-06
2.53339e-05
6.12718e-05
1.78187e-05
3.75438e-05
0 
0 
0 
0 
0 
0 
0 
0 
0 
0 
0 
8.36371e-05
0.000496185
0.000993585
0.00149969
0.00191117
0.00214323
0.00214323
0.00191118
0.00149969
0.000993588
0.000496185
8.3635e-05
0 
0 
0 
0 
0 
0 
0 
0 
0 
0 
0 
3.75445e-05
1.78194e-05
6.12719e-05
2.53336e-05
4.47559e-06
0 
0 
0 
0 
0 
0 
3.77063e-07
2.10528e-07
2.38515e-07
0 
1.85721e-07
1.96665e-07
4.28562e-07
0 
0 
0 
0 
0 
0 
1.99263e-06
3.46775e-05
7.86766e-05
5.06268e-05
5.24068e-05
0 
0 
0 
0 
0 
0 
0 
0 
0 
0 
0 
0.00097266
0.00267706
0.00491181
0.00742347
0.00983734
0.011749
0.0128055
0.0128055
0.011749
0.00983736
0.00742348
0.00491182
0.00267706
0.000972655
0 
0 
0 
0 
0 
0 
0 
0 
0 
0 
0 
5.24079e-05
5.06276e-05
7.86765e-05
3.46769e-05
1.99245e-06
0 
0 
0 
0 
0 
0 
4.28548e-07
1.96667e-07
1.85713e-07
3.47196e-07
3.94469e-07
0 
0 
0 
0 
0 
0 
0 
3.76873e-05
9.62428e-05
8.5289e-05
7.18274e-05
0 
0 
0 
0 
0 
0 
0 
0 
0 
0 
0.00113874
0.00489311
0.010778
0.0187912
0.0282756
0.0382132
0.0472877
0.0542101
0.0579524
0.0579524
0.0542102
0.0472878
0.0382132
0.0282757
0.0187912
0.010778
0.0048931
0.00113873
0 
0 
0 
0 
0 
0 
0 
0 
0 
0 
7.18286e-05
8.52896e-05
9.62425e-05
3.76865e-05
0 
0 
0 
0 
0 
0 
0 
3.94449e-07
3.47206e-07
6.16739e-07
3.57591e-07
0 
0 
0 
0 
0 
0 
3.31032e-05
0.000110758
0.0001144
9.52648e-05
0 
0 
0 
0 
0 
0 
0 
0 
0 
0.000228241
0.00563702
0.0158548
0.0320182
0.0540598
0.0805786
0.109205
0.136886
0.160641
0.177948
0.187052
0.187052
0.177948
0.160641
0.136886
0.109205
0.0805787
0.0540598
0.0320182
0.0158547
0.005637
0.000228228
0 
0 
0 
0 
0 
0 
0 
0 
0 
9.5266e-05
0.000114401
0.000110758
3.31021e-05
0 
0 
0 
0 
0 
0 
3.57609e-07
6.16719e-07
9.1739e-07
0 
0 
0 
0 
0 
0 
1.85137e-05
0.000119052
0.000136008
0.000122953
0 
0 
0 
0 
0 
0 
0 
0 
0 
0.00324982
0.0153608
0.0377669
0.0726876
0.11935
0.174769
0.233948
0.291421
0.342357
0.383129
0.411384
0.425796
0.425796
0.411384
0.383129
0.342357
0.291421
0.233948
0.174769
0.11935
0.0726876
0.0377669
0.0153608
0.00324979
0 
0 
0 
0 
0 
0 
0 
0 
0 
0.000122954
0.000136009
0.000119051
1.85127e-05
0 
0 
0 
0 
0 
0 
9.17397e-07
1.27864e-07
5.52109e-07
0 
0 
0 
0 
2.39918e-06
0.000118733
0.000138769
0.000154546
0 
0 
0 
0 
0 
0 
0 
0 
0 
0.00840125
0.0303873
0.0703598
0.130985
0.209524
0.299461
0.391803
0.478405
0.553402
0.613681
0.658245
0.687354
0.701668
0.701668
0.687354
0.658246
0.613681
0.553402
0.478406
0.391804
0.299462
0.209524
0.130985
0.0703597
0.0303872
0.0084012
0 
0 
0 
0 
0 
0 
0 
0 
0 
0.000154547
0.000138769
0.000118732
2.39863e-06
0 
0 
0 
0 
5.52109e-07
1.2789e-07
4.17314e-07
0 
0 
0 
0 
0 
0.000107047
0.000125207
0.000180892
0 
0 
0 
0 
0 
0 
0 
0 
0.000695577
0.0142599
0.0476745
0.10746
0.195876
0.30638
0.426902
0.543661
0.646395
0.729803
0.793101
0.838326
0.868607
0.886947
0.895548
0.895548
0.886947
0.868607
0.838326
0.793102
0.729804
0.646395
0.543662
0.426902
0.30638
0.195876
0.10746
0.0476744
0.0142598
0.000695548
0 
0 
0 
0 
0 
0 
0 
0 
0.000180892
0.000125206
0.000107046
0 
0 
0 
0 
0 
4.17258e-07
0 
0 
0 
2.21737e-06
0 
7.65832e-05
0.000106848
0.000193669
0 
0 
0 
0 
0 
0 
0 
0 
0.00153488
0.0187228
0.0622852
0.140152
0.253748
0.391154
0.533706
0.662965
0.767946
0.845639
0.898901
0.93335
0.954585
0.967115
0.973974
0.976993
0.976993
0.973974
0.967116
0.954585
0.933351
0.898902
0.845639
0.767946
0.662965
0.533705
0.391154
0.253748
0.140152
0.062285
0.0187226
0.00153484
0 
0 
0 
0 
0 
0 
0 
0 
0.000193669
0.000106847
7.6582e-05
0 
2.21729e-06
0 
0 
0 
0 
0 
0 
0 
3.55374e-05
8.34522e-05
0.000187843
2.81183e-05
0 
0 
0 
0 
0 
0 
0 
0.00136131
0.0199781
0.0698644
0.161075
0.294584
0.452823
0.610315
0.744487
0.844725
0.911416
0.951733
0.974446
0.986454
0.992582
0.995569
0.996987
0.997542
0.997542
0.996987
0.995569
0.992582
0.986455
0.974446
0.951733
0.911417
0.844725
0.744486
0.610315
0.452822
0.294583
0.161075
0.0698641
0.019978
0.00136126
0 
0 
0 
0 
0 
0 
0 
2.812e-05
0.000187842
8.34515e-05
3.55364e-05
0 
0 
0 
0 
0 
0 
0 
0 
7.00288e-05
0.00014055
8.50327e-05
0 
0 
0 
0 
0 
0 
0 
0.000184764
0.0175231
0.0683338
0.166209
0.31321
0.487415
0.65663
0.793928
0.88899
0.945962
0.97626
0.990791
0.996962
0.999434
1.00024
1.00047
1.00042
1.00039
1.00039
1.00043
1.00047
1.00024
0.999434
0.996962
0.990791
0.97626
0.945963
0.88899
0.793928
0.656629
0.487414
0.313209
0.166209
0.0683335
0.017523
0.000184718
0 
0 
0 
0 
0 
0 
0 
8.50334e-05
0.000140547
7.00283e-05
0 
0 
0 
0 
0 
1.10817e-06
0 
5.28828e-05
8.40252e-05
0.000127487
0 
0 
0 
0 
0 
0 
0 
0 
0.0123539
0.058303
0.154972
0.308077
0.494427
0.675378
0.818289
0.911717
0.963034
0.987273
0.997039
1.0002
1.00108
1.00099
1.00072
1.00047
1.00032
1.00025
1.00025
1.00032
1.00047
1.00072
1.00099
1.00108
1.0002
0.997039
0.987273
0.963034
0.911717
0.818289
0.675378
0.494426
0.308076
0.154971
0.0583026
0.0123538
0 
0 
0 
0 
0 
0 
0 
0 
0.000127487
8.4024e-05
5.28824e-05
0 
1.10817e-06
0 
0 
0 
1.9877e-05
4.71151e-05
0.000127623
6.1816e-06
0 
0 
0 
0 
0 
0 
0 
0.00638638
0.0427238
0.129897
0.280302
0.474405
0.668519
0.822107
0.9197
0.970234
0.991903
0.999254
1.00122
1.00136
1.00094
1.00061
1.00038
1.00015
1.00003
0.999948
0.999946
1.00003
1.00015
1.00038
1.00061