# vtk DataFile Version 3.0
fluid_state
ASCII
DATASET RECTILINEAR_GRID
DIMENSIONS 64 256 1 
X_COORDINATES 64 float
0 1 2 3 4 5 6 7 8 9 10 11 12 13 14 15 16 17 18 19 20 21 22 23 24 25 26 27 28 29 30 31 32 33 34 35 36 37 38 39 40 41 42 43 44 45 46 47 48 49 50 51 52 53 54 55 56 57 58 59 60 61 62 63 
Y_COORDINATES 256 float
0 1 2 3 4 5 6 7 8 9 10 11 12 13 14 15 16 17 18 19 20 21 22 23 24 25 26 27 28 29 30 31 32 33 34 35 36 37 38 39 40 41 42 43 44 45 46 47 48 49 50 51 52 53 54 55 56 57 58 59 60 61 62 63 64 65 66 67 68 69 70 71 72 73 74 75 76 77 78 79 80 81 82 83 84 85 86 87 88 89 90 91 92 93 94 95 96 97 98 99 100 101 102 103 104 105 106 107 108 109 110 111 112 113 114 115 116 117 118 119 120 121 122 123 124 125 126 127 128 129 130 131 132 133 134 135 136 137 138 139 140 141 142 143 144 145 146 147 148 149 150 151 152 153 154 155 156 157 158 159 160 161 162 163 164 165 166 167 168 169 170 171 172 173 174 175 176 177 178 179 180 181 182 183 184 185 186 187 188 189 190 191 192 193 194 195 196 197 198 199 200 201 202 203 204 205 206 207 208 209 210 211 212 213 214 215 216 217 218 219 220 221 222 223 224 225 226 227 228 229 230 231 232 233 234 235 236 237 238 239 240 241 242 243 244 245 246 247 248 249 250 251 252 253 254 255 
Z_COORDINATES 1 float
0 
POINT_DATA 16384
SCALARS phase float 1
LOOKUP_TABLE default
0 
0 
0 
0 
0 
0 
0 
0 
0 
0 
0 
2.70349e-12
0 
1.2613e-11
0 
1.8373e-11
1.27761e-12
1.76202e-11
1.77142e-11
0 
1.14247e-11
0 
0 
5.3379e-12
0 
0 
0 
0 
0 
0 
0 
0 
0 
0 
0 
0 
0 
0 
0 
0 
5.33813e-12
0 
0 
1.14245e-11
0 
1.7715e-11
1.76194e-11
1.27876e-12
1.8372e-11
0 
1.26128e-11
0 
2.70349e-12
0 
0 
0 
0 
0 
0 
0 
0 
0 
0 
0 
0 
0 
0 
0 
0 
0 
0 
0 
0 
0 
3.81906e-12
0 
1.51092e-11
0 
3.30917e-11
0 
3.68564e-11
0 
3.8815e-12
3.13499e-11
0 
1.47581e-11
3.20883e-12
0 
8.01585e-12
0 
0 
0 
0 
0 
0 
0 
0 
0 
0 
0 
0 
0 
0 
8.01592e-12
0 
3.20987e-12
1.47568e-11
0 
3.13507e-11
3.87975e-12
0 
3.68545e-11
0 
3.30916e-11
0 
1.51096e-11
0 
3.8192e-12
0 
0 
0 
0 
0 
0 
0 
0 
0 
0 
0 
0 
0 
0 
0 
0 
0 
0 
0 
3.02215e-12
0 
1.07831e-11
0 
4.40543e-11
0 
6.73169e-11
0 
5.1459e-11
1.91987e-11
0 
5.34076e-11
0 
2.00994e-12
1.83448e-11
0 
4.72191e-12
0 
0 
0 
1.11902e-12
0 
0 
0 
0 
1.11894e-12
0 
0 
0 
4.72174e-12
0 
1.83459e-11
2.00832e-12
0 
5.34075e-11
0 
1.92029e-11
5.14546e-11
0 
6.73131e-11
0 
4.40546e-11
0 
1.07833e-11
0 
3.02222e-12
0 
0 
0 
0 
0 
0 
0 
0 
0 
0 
0 
0 
0 
0 
0 
0 
0 
1.63458e-12
0 
9.17232e-12
0 
3.60248e-11
0 
9.71776e-11
0 
1.31658e-10
0 
3.1236e-11
7.70153e-11
0 
5.67627e-11
1.01162e-12
0 
2.63608e-11
0 
0 
2.2423e-12
0 
0 
1.23393e-12
0 
0 
1.23389e-12
0 
0 
2.24248e-12
0 
0 
2.63613e-11
0 
1.01486e-12
5.67592e-11
0 
7.70191e-11
3.12292e-11
0 
1.31652e-10
0 
9.71784e-11
0 
3.60268e-11
0 
9.17225e-12
0 
1.63452e-12
0 
0 
0 
0 
0 
0 
0 
0 
0 
0 
0 
0 
0 
0 
1.37242e-12
0 
0 
5.17583e-12
0 
1.71179e-11
0 
1.03079e-10
0 
2.02264e-10
0 
1.97209e-10
0 
0 
1.49067e-10
0 
2.08465e-11
4.56114e-11
0 
1.70434e-11
0 
0 
2.43636e-12
1.68863e-12
0 
0 
0 
0 
1.68855e-12
2.43621e-12
0 
0 
1.70428e-11
0 
4.5615e-11
2.08418e-11
0 
1.49069e-10
0 
0 
1.97195e-10
0 
2.02256e-10
0 
1.03082e-10
0 
1.71179e-11
0 
5.17556e-12
0 
0 
1.37278e-12
0 
0 
0 
0 
0 
0 
0 
0 
0 
0 
0 
2.132e-12
0 
0 
2.70369e-12
0 
1.30746e-11
0 
7.15777e-11
0 
2.34904e-10
0 
4.16647e-10
0 
1.81491e-10
1.415e-10
0 
1.78707e-10
0 
0 
7.36736e-11
0 
0 
9.19519e-12
0 
0 
1.74556e-12
0 
0 
1.74562e-12
0 
0 
9.19558e-12
0 
0 
7.36753e-11
0 
0 
1.787e-10
0 
1.41513e-10
1.8147e-10
0 
4.16636e-10
0 
2.34907e-10
0 
7.15834e-11
0 
1.30741e-11
0 
2.70313e-12
0 
0 
2.13266e-12
0 
0 
0 
0 
0 
0 
0 
0 
0 
1.77742e-12
0 
3.92911e-12
0 
0 
5.18275e-12
0 
2.62314e-11
0 
2.13451e-10
0 
5.20545e-10
0 
6.98448e-10
0 
0 
3.69836e-10
0 
1.02126e-10
9.89872e-11
0 
5.59852e-11
0 
0 
1.30888e-11
0 
0 
0 
0 
0 
0 
1.30882e-11
0 
0 
5.59836e-11
0 
9.89978e-11
1.02113e-10
0 
3.69848e-10
0 
0 
6.98412e-10
0 
5.20535e-10
0 
2.13461e-10
0 
2.62314e-11
0 
5.18153e-12
0 
0 
3.93001e-12
0 
1.77795e-12
0 
0 
0 
0 
0 
0 
0 
0 
0 
6.76938e-12
0 
0 
1.13779e-12
0 
5.91059e-12
0 
1.36435e-10
0 
5.04826e-10
0 
1.18418e-09
0 
7.73293e-10
1.60943e-10
0 
5.22971e-10
0 
0 
1.96598e-10
0 
0 
3.21961e-11
0 
8.05314e-12
0 
0 
0 
0 
8.05138e-12
0 
3.21972e-11
0 
0 
1.96604e-10
0 
0 
5.22959e-10
0 
1.60988e-10
7.73233e-10
0 
1.18417e-09
0 
5.04844e-10
0 
1.36449e-10
0 
5.90986e-12
0 
1.13678e-12
0 
0 
6.77119e-12
0 
0 
0 
0 
0 
0 
0 
0 
0 
7.43983e-12
0 
7.50368e-12
0 
0 
0 
0 
3.01667e-11
0 
3.8983e-10
0 
1.1344e-09
0 
2.24503e-09
0 
2.69978e-10
8.37028e-10
0 
4.07886e-10
1.86315e-10
0 
1.75485e-10
0 
0 
5.04925e-11
0 
0 
0 
0 
0 
0 
5.04909e-11
0 
0 
1.75481e-10
0 
1.86343e-10
4.07854e-10
0 
8.37079e-10
2.69885e-10
0 
2.24496e-09
0 
1.1344e-09
0 
3.89857e-10
0 
3.01689e-11
0 
0 
0 
0 
7.50534e-12
0 
7.44183e-12
0 
0 
0 
0 
0 
0 
0 
4.94564e-12
0 
1.43976e-11
0 
0 
0 
0 
0 
0 
2.26626e-10
0 
8.65672e-10
0 
2.96146e-09
0 
2.77223e-09
0 
0 
1.47067e-09
0 
0 
5.10501e-10
0 
2.34466e-11
9.96512e-11
0 
3.57796e-11
0 
0 
0 
0 
3.57752e-11
0 
9.96549e-11
2.34364e-11
0 
5.10517e-10
0 
0 
1.47066e-09
0 
0 
2.77208e-09
0 
2.9615e-09
0 
8.65748e-10
0 
2.26671e-10
0 
0 
0 
0 
0 
0 
1.44009e-11
0 
4.9476e-12
0 
0 
0 
0 
0 
1.63472e-12
0 
1.70696e-11
0 
3.71994e-12
0 
0 
0 
0 
0 
2.10784e-10
5.27622e-10
0 
1.85934e-09
0 
6.42221e-09
0 
1.72331e-09
1.67822e-09
0 
1.45565e-09
2.66439e-10
0 
5.298e-10
0 
0 
1.62533e-10
0 
1.34574e-11
0 
0 
1.34516e-11
0 
1.62532e-10
0 
0 
5.2979e-10
0 
2.66513e-10
1.45558e-09
0 
1.67839e-09
1.72305e-09
0 
6.42216e-09
0 
1.85942e-09
0 
5.27696e-10
2.1074e-10
0 
0 
0 
0 
0 
3.72087e-12
0 
1.70726e-11
0 
1.6354e-12
0 
0 
0 
0 
1.66267e-12
1.72798e-11
0 
1.33436e-11
0 
0 
0 
0 
0 
3.26485e-10
9.52394e-11
4.02216e-10
9.10588e-10
0 
6.21104e-09
0 
8.77564e-09
0 
0 
3.99635e-09
0 
2.11435e-10
1.28395e-09
0 
1.31462e-10
2.79853e-10
0 
1.20722e-10
0 
0 
0 
0 
1.20713e-10
0 
2.79867e-10
1.31432e-10
0 
1.284e-09
2.11328e-10
0 
3.99639e-09
0 
0 
8.77531e-09
0 
6.21134e-09
0 
9.10765e-10
4.02029e-10
9.53688e-11
3.26451e-10
0 
0 
0 
0 
0 
1.33458e-11
0 
1.72834e-11
1.6624e-12
0 
0 
0 
1.51598e-12
1.47967e-11
0 
2.26365e-11
0 
0 
0 
0 
0 
1.84207e-10
0 
1.48934e-09
0 
1.4176e-10
1.50368e-09
0 
1.59578e-08
0 
7.28513e-09
2.66394e-09
0 
4.77574e-09
6.17352e-11
0 
1.54583e-09
0 
0 
4.69459e-10
0 
5.43049e-11
0 
0 
5.42915e-11
0 
4.69461e-10
0 
0 
1.54581e-09
0 
6.19224e-11
4.77563e-09
0 
2.6645e-09
7.28442e-09
0 
1.59581e-08
0 
1.50395e-09
1.41474e-10
0 
1.4892e-09
0 
1.84225e-10
0 
0 
0 
0 
0 
2.26377e-11
0 
1.47983e-11
1.51849e-12
0 
0 
9.45424e-12
4.40154e-12
2.82057e-11
0 
0 
0 
0 
0 
0 
0 
1.90895e-09
0 
2.72158e-09
0 
0 
1.09166e-08
0 
2.47856e-08
0 
3.40522e-10
1.03259e-08
0 
1.73851e-09
3.09045e-09
0 
5.47878e-10
7.29232e-10
0 
3.49549e-10
0 
2.60235e-11
2.60148e-11
0 
3.49535e-10
0 
7.2928e-10
5.47796e-10
0 
3.09064e-09
1.73821e-09
0 
1.03263e-08
3.39624e-10
0 
2.47853e-08
0 
1.09176e-08
0 
0 
2.72108e-09
0 
1.90884e-09
0 
0 
0 
0 
0 
0 
0 
2.8208e-11
4.40371e-12
9.45219e-12
0 
3.62677e-12
4.99984e-12
3.70813e-11
0 
0 
0 
0 
0 
0 
0 
1.4207e-09
0 
5.25935e-09
0 
3.5663e-09
0 
0 
3.48206e-08
0 
2.62166e-08
1.78098e-09
0 
1.46943e-08
0 
0 
4.38202e-09
0 
0 
1.27711e-09
0 
1.53841e-10
8.97857e-11
8.97838e-11
1.53826e-10
0 
1.27713e-09
0 
0 
4.38201e-09
0 
0 
1.46943e-08
0 
1.78267e-09
2.62148e-08
0 
3.48221e-08
0 
0 
3.56568e-09
0 
5.25892e-09
0 
1.42082e-09
0 
0 
0 
0 
0 
0 
0 
3.70756e-11
5.00839e-12
3.61629e-12
2.90892e-12
3.88418e-11
0 
3.24365e-11
0 
0 
0 
0 
0 
4.71102e-10
0 
6.43927e-09
0 
9.72649e-09
0 
1.16203e-09
1.47876e-08
0 
6.42704e-08
0 
9.88236e-09
2.50687e-08
0 
8.27969e-09
7.0394e-09
0 
1.93398e-09
1.79634e-09
0 
9.05557e-10
0 
1.54839e-10
1.54836e-10
0 
9.05547e-10
0 
1.79649e-09
1.93378e-09
0 
7.04e-09
8.27878e-09
0 
2.50703e-08
9.8796e-09
0 
6.42699e-08
0 
1.47901e-08
1.1606e-09
0 
9.7253e-09
0 
6.43879e-09
0 
4.71255e-10
0 
0 
0 
0 
0 
3.24265e-11
0 
3.88256e-11
2.92319e-12
2.53673e-11
0 
7.52122e-11
0 
0 
0 
0 
0 
0 
0 
5.85982e-09
0 
1.49851e-08
0 
1.35443e-08
0 
0 
6.98708e-08
0 
8.37761e-08
0 
0 
4.34725e-08
0 
0 
1.21024e-08
0 
0 
3.44209e-09
0 
2.87721e-10
5.2038e-10
5.20391e-10
2.87732e-10
0 
3.44218e-09
0 
0 
1.21025e-08
0 
0 
4.34728e-08
0 
0 
8.37722e-08
0 
6.98754e-08
0 
0 
1.35427e-08
0 
1.49842e-08
0 
5.86025e-09
0 
0 
0 
0 
0 
0 
0 
7.51874e-11
0 
2.5333e-11
0 
8.81659e-11
0 
7.64489e-11
0 
0 
0 
0 
0 
4.08013e-09
0 
1.70755e-08
0 
2.80813e-08
0 
1.92296e-08
9.76379e-09
0 
1.62495e-07
0 
5.46037e-08
5.54062e-08
0 
3.31598e-08
1.51874e-08
0 
6.17652e-09
3.89613e-09
0 
2.4878e-09
0 
6.74516e-10
6.74491e-10
0 
2.48783e-09
0 
3.89669e-09
6.17609e-09
0 
1.51892e-08
3.31573e-08
0 
5.54119e-08
5.45952e-08
0 
1.62497e-07
0 
9.7709e-09
1.92251e-08
0 
2.8079e-08
0 
1.70747e-08
0 
4.08096e-09
0 
0 
0 
0 
0 
7.64346e-11
0 
8.81085e-11
0 
7.72595e-11
0 
2.01888e-10
0 
0 
0 
0 
0 
2.16301e-09
0 
1.61566e-08
0 
3.62756e-08
0 
4.72196e-08
0 
4.06095e-08
1.22766e-07
0 
2.48666e-07
0 
0 
1.25307e-07
0 
0 
3.31071e-08
0 
0 
7.46626e-09
0 
8.19524e-10
1.92001e-09
1.92025e-09
8.19511e-10
0 
7.46691e-09
0 
0 
3.31076e-08
0 
0 
1.25308e-07
0 
0 
2.48659e-07
0 
1.22781e-07
4.06002e-08
0 
4.72154e-08
0 
3.6274e-08
0 
1.61567e-08
0 
2.16376e-09
0 
0 
0 
0 
0 
2.01836e-10
0 
7.71536e-11
0 
2.82867e-10
0 
2.98788e-10
0 
0 
2.6729e-10
0 
0 
1.42953e-08
0 
3.49025e-08
0 
6.62576e-08
0 
1.02499e-07
0 
0 
3.72005e-07
0 
2.29983e-07
1.06686e-07
0 
1.18326e-07
3.19235e-08
0 
1.73621e-08
3.75491e-09
0 
4.76987e-09
0 
3.47895e-09
3.47885e-09
0 
4.77036e-09
0 
3.75671e-09
1.7361e-08
0 
3.1929e-08
1.1832e-07
0 
1.06704e-07
2.29961e-07
0 
3.72019e-07
0 
0 
1.02487e-07
0 
6.62553e-08
0 
3.49002e-08
0 
1.42955e-08
0 
0 
2.67201e-10
0 
0 
2.98757e-10
0 
2.82693e-10
0 
2.89874e-10
0 
6.48834e-10
0 
5.65968e-11
1.84016e-10
0 
1.89661e-09
1.06226e-08
0 
3.17847e-08
0 
5.81074e-08
0 
1.22387e-07
0 
2.53329e-07
1.29569e-07
0 
7.02835e-07
0 
0 
3.51615e-07
0 
0 
8.87558e-08
0 
0 
1.03207e-08
0 
1.84029e-09
7.74546e-09
7.74613e-09
1.84082e-09
0 
1.03224e-08
0 
0 
8.87589e-08
0 
0 
3.51623e-07
0 
0 
7.02827e-07
0 
1.29614e-07
2.53299e-07
0 
1.22384e-07
0 
5.81064e-08
0 
3.17828e-08
0 
1.06231e-08
1.89655e-09
0 
1.83969e-10
5.65458e-11
0 
6.48743e-10
0 
2.89603e-10
0 
8.07722e-10
0 
8.33582e-10
0 
0 
2.63059e-09
5.1487e-09
1.33785e-09
2.61611e-08
0 
4.84154e-08
0 
9.46402e-08
0 
3.41499e-07
0 
3.18744e-07
7.48597e-07
0 
8.27006e-07
1.48093e-07
0 
4.04853e-07
6.44886e-08
0 
4.44376e-08
0 
0 
9.94848e-10
0 
1.0712e-08
1.07123e-08
0 
9.96255e-10
0 
0 
4.44354e-08
0 
6.4506e-08
4.04834e-07
0 
1.48144e-07
8.26957e-07
0 
7.48657e-07
3.18665e-07
0 
3.41481e-07
0 
9.46363e-08
0 
4.84169e-08
0 
2.61601e-08
1.33683e-09
5.15034e-09
2.63075e-09
0 
0 
8.33405e-10
0 
8.07296e-10
0 
5.43708e-10
0 
1.43221e-09
0 
3.87242e-10
1.29432e-09
4.10761e-10
9.05173e-09
1.76341e-08
0 
3.66237e-08
0 
7.36223e-08
0 
1.96806e-07
0 
1.03959e-06
0 
0 
1.87553e-06
0 
2.07714e-07
9.52715e-07
0 
2.63606e-08
2.33515e-07
0 
0 
1.01931e-08
0 
0 
6.63929e-09
6.64026e-09
0 
0 
1.01962e-08
0 
0 
2.33526e-07
2.63189e-08
0 
9.52749e-07
2.07628e-07
0 
1.87555e-06
0 
0 
1.03951e-06
0 
1.96812e-07
0 
7.36219e-08
0 
3.66213e-08
0 
1.76339e-08
9.05037e-09
4.12401e-10
1.29451e-09
3.87291e-10
0 
1.43195e-09
0 
5.43075e-10
0 
1.35015e-09
0 
1.58801e-09
0 
0 
1.93333e-08
7.74165e-09
5.90607e-09
1.86982e-08
0 
3.44928e-08
0 
6.73913e-08
0 
9.05225e-07
0 
1.82459e-06
1.10139e-06
0 
2.64968e-06
0 
0 
1.41132e-06
1.79445e-07
0 
1.20535e-07
1.05587e-08
0 
0 
0 
0 
0 
0 
0 
0 
1.05648e-08
1.20522e-07
0 
1.79497e-07
1.41128e-06
0 
0 
2.64958e-06
0 
1.1016e-06
1.82436e-06
0 
9.05218e-07
0 
6.74001e-08
0 
3.44944e-08
0 
1.86973e-08
5.90211e-09
7.7432e-09
1.93317e-08
0 
0 
1.58801e-09
0 
1.34934e-09
0 
9.03514e-11
0 
1.48751e-09
0 
0 
2.63995e-08
0 
3.63225e-08
0 
0 
0 
0 
0 
0 
1.31137e-07
0 
3.97718e-06
0 
5.82957e-07
4.31059e-06
0 
1.20258e-06
2.10228e-06
0 
7.48393e-07
1.03268e-06
0 
0 
0 
0 
0 
0 
0 
0 
0 
0 
0 
0 
1.03268e-06
7.48253e-07
0 
2.10248e-06
1.20233e-06
0 
4.3108e-06
5.82564e-07
0 
3.97696e-06
0 
1.31178e-07
0 
0 
0 
0 
0 
0 
3.63166e-08
0 
2.63982e-08
0 
0 
1.48713e-09
0 
8.93857e-11
0 
4.43649e-10
0 
0 
2.0885e-08
0 
8.05023e-08
0 
1.52567e-08
0 
0 
0 
0 
0 
0 
3.41964e-06
0 
7.10461e-06
6.92715e-08
0 
7.3583e-06
0 
0 
4.08001e-06
0 
0 
1.2082e-06
2.84261e-07
0 
0 
0 
0 
0 
0 
0 
0 
2.84257e-07
1.20816e-06
0 
0 
4.08003e-06
0 
0 
7.35823e-06
0 
6.98629e-08
7.10404e-06
0 
3.4196e-06
0 
0 
0 
0 
0 
0 
1.52502e-08
0 
8.04958e-08
0 
2.08852e-08
0 
0 
4.42063e-10
0 
0 
0 
0 
2.08695e-09
0 
1.16109e-07
0 
9.11875e-08
0 
0 
0 
0 
0 
0 
1.71338e-06
0 
1.1298e-05
0 
3.44344e-06
6.04303e-06
0 
4.13864e-06
2.22122e-06
0 
2.37847e-06
3.23626e-06
7.61961e-07
5.46008e-07
0 
0 
0 
0 
0 
0 
0 
0 
5.45955e-07
7.61907e-07
3.23641e-06
2.37823e-06
0 
2.22184e-06
4.13795e-06
0 
6.04385e-06
3.44251e-06
0 
1.12976e-05
0 
1.71336e-06
0 
0 
0 
0 
0 
0 
9.11768e-08
0 
1.16103e-07
0 
2.08835e-09
0 
0 
0 
0 
0 
0 
0 
1.19244e-07
0 
1.92711e-07
0 
0 
0 
0 
0 
0 
4.12327e-07
0 
1.16103e-05
0 
1.71878e-05
0 
0 
1.34251e-05
0 
0 
6.98136e-06
0 
0 
5.26642e-06
3.44691e-06
8.50332e-07
0 
0 
0 
0 
0 
0 
8.50324e-07
3.44684e-06
5.26627e-06
0 
0 
6.98167e-06
0 
0 
1.34254e-05
0 
0 
1.71869e-05
0 
1.16102e-05
0 
4.12411e-07
0 
0 
0 
0 
0 
0 
1.92696e-07
0 
1.19241e-07
0 
0 
0 
0 
0 
0 
0 
9.06796e-08
0 
2.99216e-07
0 
6.32178e-08
0 
0 
0 
0 
0 
0 
1.04806e-05
0 
2.57098e-05
0 
1.1061e-05
0 
0 
5.9099e-06
0 
0 
0 
3.80958e-06
5.91074e-07
4.58603e-06
4.21978e-06
2.93204e-06
2.10532e-06
2.39466e-06
2.39464e-06
2.10527e-06
2.93199e-06
4.21964e-06
4.58574e-06
5.91014e-07
3.80993e-06
0 
0 
0 
5.909e-06
0 
0 
1.10591e-05
0 
2.57092e-05
0 
1.04804e-05
0 
0 
0 
0 
0 
0 
6.32095e-08
0 
2.99201e-07
0 
9.06805e-08
0 
0 
0 
0 
0 
4.88275e-08
0 
3.80975e-07
0 
2.24263e-07
0 
0 
0 
0 
0 
0 
8.36749e-06
0 
3.09083e-05
0 
3.28046e-05
0 
0 
1.7648e-06
0 
0 
0 
0 
0 
1.7728e-06
5.38178e-06
7.67315e-06
1.12488e-05
1.52647e-05
1.76388e-05
1.76388e-05
1.52644e-05
1.12485e-05
7.67287e-06
5.38159e-06
1.77247e-06
0 
0 
0 
0 
0 
1.7673e-06
0 
0 
3.28038e-05
0 
3.09089e-05
0 
8.3678e-06
0 
0 
0 
0 
0 
0 
2.24246e-07
0 
3.80963e-07
0 
4.88342e-08
0 
0 
0 
6.92564e-10
0 
4.13388e-07
0 
4.67745e-07
0 
0 
0 
0 
0 
0 
6.68649e-06
7.09235e-06
3.72016e-05
0 
3.94053e-05
0 
3.42366e-06
0 
0 
0 
0 
0 
0 
0 
0 
0 
1.52632e-05
4.97897e-05
8.07412e-05
9.92032e-05
9.92027e-05
8.074e-05
4.97881e-05
1.5262e-05
0 
0 
0 
0 
0 
0 
0 
0 
0 
3.42202e-06
0 
3.94062e-05
0 
3.72018e-05
7.09128e-06
6.6866e-06
0 
0 
0 
0 
0 
0 
4.67721e-07
0 
4.1338e-07
0 
6.96206e-10
0 
0 
0 
3.87663e-07
0 
6.99469e-07
0 
0 
0 
0 
0 
0 
4.99798e-06
1.7336e-05
4.84565e-05
1.76416e-05
3.67008e-05
0 
0 
0 
0 
0 
0 
0 
0 
0 
0 
0 
9.17272e-06
0.000200084
0.000407861
0.00058602
0.000689104
0.000689102
0.000586012
0.000407851
0.000200075
9.16665e-06
0 
0 
0 
0 
0 
0 
0 
0 
0 
0 
0 
3.67061e-05
1.7637e-05
4.84572e-05
1.73344e-05
4.99804e-06
0 
0 
0 
0 
0 
0 
6.99443e-07
0 
3.87668e-07
0 
0 
0 
2.87643e-07
1.29253e-07
8.37952e-07
0 
0 
0 
0 
0 
0 
2.64212e-06
3.0073e-05
6.8985e-05
5.02965e-05
3.03774e-05
0 
0 
0 
0 
0 
0 
0 
0 
0 
0 
0 
0.000375581
0.00131828
0.00247318
0.00364863
0.00461258
0.0051591
0.00515909
0.00461253
0.00364857
0.00247312
0.00131822
0.000375545
0 
0 
0 
0 
0 
0 
0 
0 
0 
0 
0 
3.03801e-05
5.02935e-05
6.89846e-05
3.00714e-05
2.64213e-06
0 
0 
0 
0 
0 
0 
8.37926e-07
1.2925e-07
2.87641e-07
0 
1.76652e-07
2.19781e-07
7.95602e-07
0 
1.59198e-07
0 
0 
0 
0 
3.22968e-07
4.40935e-05
9.44436e-05
7.60401e-05
4.0536e-05
0 
0 
0 
0 
0 
0 
0 
0 
0 
0 
0.000461644
0.00305981
0.00703628
0.0122153
0.0179884
0.0235225
0.0278897
0.0303021
0.030302
0.0278895
0.0235222
0.0179881
0.0122149
0.00703601
0.00305964
0.000461558
0 
0 
0 
0 
0 
0 
0 
0 
0 
0 
4.05391e-05
7.60362e-05
9.44422e-05
4.40921e-05
3.22984e-07
0 
0 
0 
0 
1.59193e-07
0 
7.95594e-07
2.19739e-07
1.76709e-07
4.38168e-07
5.97699e-07
0 
1.65412e-07
0 
0 
0 
0 
0 
5.47547e-05
0.000117821
9.86539e-05
6.86601e-05
0 
0 
0 
0 
0 
0 
0 
0 
0 
0 
0.00442067
0.0128477
0.0258524
0.0430197
0.0628846
0.0832325
0.101431
0.115101
0.122427
0.122426
0.115101
0.10143
0.0832312
0.0628832
0.0430185
0.0258515
0.0128471
0.00442034
0 
0 
0 
0 
0 
0 
0 
0 
0 
0 
6.86615e-05
9.86505e-05
0.000117818
5.47533e-05
0 
0 
0 
0 
0 
1.65379e-07
0 
5.9766e-07
4.38134e-07
9.10137e-07
1.91562e-07
0 
0 
0 
0 
0 
0 
5.64973e-05
0.000134943
0.000123009
9.88076e-05
0 
0 
0 
0 
0 
0 
0 
0 
0 
0.00330598
0.0150791
0.0361981
0.0682212
0.109781
0.157805
0.207413
0.253566
0.2919
0.319182
0.333344
0.333344
0.319181
0.291897
0.253563
0.207409
0.157801
0.109778
0.0682189
0.0361965
0.0150782
0.0033056
0 
0 
0 
0 
0 
0 
0 
0 
0 
9.88081e-05
0.000123006
0.000134941
5.64957e-05
0 
0 
0 
0 
0 
0 
1.91456e-07
9.10298e-07
1.17758e-06
0 
0 
0 
0 
0 
0 
4.84618e-05
0.000143616
0.000147933
0.000113933
0 
0 
0 
0 
0 
0 
0 
0 
0 
0.0104924
0.0341677
0.075589
0.136107
0.212163
0.297168
0.382277
0.460267
0.52575
0.575837
0.60938
0.626165
0.626164
0.609378
0.575834
0.525745
0.460262
0.382271
0.297162
0.212158
0.136103
0.0755859
0.0341659
0.0104916
0 
0 
0 
0 
0 
0 
0 
0 
0 
0.000113934
0.000147928
0.000143615
4.84604e-05
0 
0 
0 
0 
0 
0 
1.17757e-06
4.02835e-07
0 
0 
0 
0 
0 
2.94629e-05
0.000144631
0.00016562
0.000122306
0 
0 
0 
0 
0 
0 
0 
0 
0.00253298
0.0202489
0.0589852
0.124839
0.217325
0.328845
0.446852
0.558325
0.654814
0.731708
0.788894
0.828268
0.852715
0.864419
0.864419
0.852714
0.828265
0.78889
0.731703
0.654808
0.558318
0.446844
0.328838
0.217319
0.124834
0.0589823
0.0202475
0.00253256
0 
0 
0 
0 
0 
0 
0 
0 
0.000122306
0.000165615
0.00014463
2.94622e-05
0 
0 
0 
0 
0 
4.0304e-07
3.16335e-07
0 
0 
0 
0 
5.38779e-06
0.000135749
0.000167526
0.000147947
0 
0 
0 
0 
0 
0 
0 
0 
0.00497805
0.0296938
0.0831239
0.172288
0.293817
0.434007
0.573353
0.695837
0.793003
0.863038
0.910319
0.940075
0.957966
0.967875
0.972382
0.972382
0.967874
0.957965
0.940073
0.910316
0.863034
0.792997
0.69583
0.573344
0.433997
0.293808
0.172281
0.0831201
0.029692
0.00497748
0 
0 
0 
0 
0 
0 
0 
0 
0.000147948
0.00016752
0.000135749
5.3872e-06
0 
0 
0 
0 
3.16515e-07
0 
0 
0 
0 
0 
0.000123549
0.000143144
0.000183754
0 
0 
0 
0 
0 
0 
0 
0 
0.00613204
0.035625
0.100185
0.207719
0.352172
0.512726
0.663546
0.786685
0.87476
0.930737
0.963712
0.981114
0.989839
0.993891
0.996027
0.997099
0.997099
0.996027
0.993891
0.989839
0.981113
0.963711
0.930734
0.874755
0.786678
0.663537
0.512716
0.352162
0.207712
0.100181
0.035623
0.00613143
0 
0 
0 
0 
0 
0 
0 
0 
0.000183757
0.000143142
0.000123549
0 
0 
0 
0 
0 
0 
0 
4.33861e-06
0 
8.8731e-05
0.000111125
0.00021081
0 
0 
0 
0 
0 
0 
0 
0 
0.00554649
0.0362198
0.106202
0.225409
0.386269
0.561361
0.719357
0.840198
0.918124
0.962321
0.98431
0.993156
0.996338
0.996817
0.996776
0.996905
0.997774
0.997774
0.996905
0.996776
0.996817
0.996337
0.993156
0.984309
0.962319
0.91812
0.840191
0.719348
0.561351
0.386259
0.225402
0.106198
0.0362179
0.00554595
0 
0 
0 
0 
0 
0 
0 
0 
0.000210807
0.000111123
8.87302e-05
0 
4.33903e-06
0 
0 
0 
0 
0 
4.21941e-05
8.20784e-05
0.000212228
9.36548e-06
0 
0 
0 
0 
0 
0 
0 
0.00362683
0.0315207
0.100502
0.223822
0.394823
0.581413
0.746816
0.867281
0.939315
0.976333
0.99105
0.995441
0.995116
0.993359
0.991324
0.990988
0.99245
0.994655
0.994655
0.99245
0.990988
0.991324
0.99336
0.995116
0.995441
0.99105
0.976331
0.939312
0.867275
0.746807
0.581403
0.394813
0.223815
0.100498
0.031519
0.00362644
0 
0 
0 
0 
0 
0 
0 
9.36458e-06
0.000212225
8.20788e-05
4.2195e-05
0 
0 
0 
0 
0 
0 
6.16922e-05
0.000166298
8.43072e-05
0 
0 
0 
0 
0 
0 
0 
0.00103205
0.0233211
0.0851149
0.204478
0.378993
0.575317
0.750705
0.87597
0.947521
0.981511
0.992753
0.99421
0.991301
0.987114
0.982553
0.98166
0.984346
0.989194
0.99343
0.99343
0.989194
0.984346
0.98166
0.982554
0.987114
0.991302
0.99421
0.992753
0.981509
0.947517
0.875964
0.750697
0.575307
0.378984
0.204472
0.0851117
0.0233199
0.00103185
0 
0 
0 
0 
0 
0 
0 
8.43064e-05
0.000166298
6.16925e-05
0 
0 
0 
0 
0 
4.09646e-05
9.74291e-05
0.000139965
0 
0 
0 
0 
0 
0 
0 
0 
0.0141148
0.0638795
0.171384
0.341523
0.544965
0.733345
0.869735
0.946897
0.982386
0.992379
0.991626
0.986856
0.979505
0.972326
0.969538
0.973256
0.980839
0.988723
0.994005
0.994005
0.988722
0.980837
0.973255
0.969538
0.972326
0.979506
0.986856
0.991627
0.992379
0.982385
0.946894
0.869729
0.733337
0.544956
0.341515
0.171379
0.0638772
0.0141141
0 
0 
0 
0 
0 
0 
0 
0 
0.000139966
9.7432e-05
4.09632e-05
0 
0 
0 
3.96375e-06
4.94155e-05
0.000140081
3.97324e-05
0 
0 
0 
0 
0 
0 
0 
0.0062244
0.0417495
0.130385
0.286932
0.491933
0.694711
0.848868
0.93859
0.979944
0.99124
0.989636
0.98261
0.97184
0.961597
0.954699
0.957143
0.967099
0.979251
0.98761
0.992725
0.992725
0.987609
0.979249
0.967096
0.957141
0.954698
0.961598
0.971841
0.982611
0.989637
0.99124
0.979943
0.938586
0.848863
0.694703
0.491925
0.286925
0.130382
0.0417481
0.00622404
0 
0 
0 
0 
0 
0 
0 
3.97355e-05
0.000140078
4.94227e-05
3.95798e-06
0 
0 
2.33992e-05
8.57868e-05
9.507e-05
0 
0 
0 
0 
0 
0 
0 
0.000793206
0.0228355
0.0883239
0.221922
0.418952
0.634037
0.811255
0.920888
0.973282
0.989797
0.988932
0.980186
0.965601
0.951852
0.938869
0.935394
0.944994
0.961823
0.976379
0.984313
0.990006
0.990005
0.984313
0.976378
0.961819
0.944991
0.935392
0.938869
0.951853
0.965602
0.980187
0.988933
0.989797
0.97328
0.920885
0.811249
0.63403
0.418945
0.221917
0.0883216
0.0228348
0.000793073
0 
0 
0 
0 
0 
0 
0 
9.5075e-05
8.57802e-05
2.34104e-05
0 
0 
3.81715e-05
0.000105001
1.71465e-05
0 
0 
0 
0 
0 
0 
0 
0.00944508
0.0517256
0.155195
0.33161
0.551195
0.752316
0.89014
0.960641
0.986924
0.989493
0.980498
0.963121
0.944445
0.924344
0.910925
0.913521
0.932165
0.955389
0.970796
0.980542
0.987696
0.987696
0.980541
0.970794
0.955386
0.932159
0.913516
0.910923
0.924345
0.944446
0.963123
0.9805
0.989494
0.986924
0.960639
0.890137
0.75231
0.551189
0.331605
0.155192
0.0517245
0.00944479
0 
0 
0 
0 
0 
0 
0 
1.71377e-05
0.000105013
3.81534e-05
0 
7.84536e-06
6.02205e-05
6.7974e-05
0 
0 
0 
0 
0 
0 
0 
0.00175625
0.0249616
0.0956856
0.239371
0.449015
0.669344
0.841242
0.938383
0.980383
0.990138
0.9837
0.966483
0.942368
0.914808
0.887994
0.875798
0.887366
0.916528
0.945386
0.963932
0.976965
0.986487
0.986487
0.976964
0.96393
0.945383
0.916521
0.887358
0.875794
0.887994
0.91481
0.942371
0.966486
0.983702
0.990138
0.980383
0.938381
0.841238
0.669339
0.44901
0.239368
0.0956842
0.0249612
0.00175617
0 
0 
0 
0 
0 
0 
0 
6.79581e-05
6.02479e-05
7.80247e-06
2.20723e-05
6.92044e-05
1.73451e-05
0 
0 
0 
0 
0 
0 
0 
0.00887247
0.050206
0.153882
0.335598
0.561928
0.766553
0.9009
0.966399
0.988236
0.988375
0.974999
0.950287
0.916312
0.876664
0.840043
0.829446
0.854701
0.895661
0.932379
0.956501
0.973829
0.985643
0.985642
0.973827
0.956498
0.932375
0.895654
0.854691
0.82944
0.840042
0.876667
0.916317
0.950291
0.975002
0.988376
0.988236
0.966398
0.900898
0.766549
0.561925
0.335595
0.15388
0.0502055
0.00887236
0 
0 
0 
0 
0 
0 
0 
1.73635e-05
6.91764e-05
2.21292e-05
4.20424e-05
4.65138e-05
0 
0 
0 
0 
0 
0 
0 
0.00103846
0.0209924
0.08551
0.224713
0.435589
0.662831
0.840019
0.939148
0.980868
0.990716
0.984179
0.965537
0.933883
0.887963
0.831725
0.778368
0.770121
0.813623
0.869778
0.917428
0.94911
0.970917
0.98476
0.984759
0.970915
0.949107
0.917423
0.86977
0.813612
0.770114
0.778368
0.831731
0.887971
0.933889
0.965541
0.984181
0.990717
0.980868
0.939147
0.840018
0.662829
0.435587
0.224712
0.0855096
0.0209923
0.00103845
0 
0 
0 
0 
0 
0 
0 
4.65797e-05
4.1873e-05
6.33196e-05
1.08991e-05
0 
0 
0 
0 
0 
0 
0 
0.00593989
0.0393665
0.131093
0.303904
0.532366
0.747347
0.892164
0.963379
0.987868
0.990702
0.97975
0.956892
0.920733
0.86147
0.784967
0.707167
0.699148
0.765753
0.840925
0.902052
0.942058
0.968283
0.983826
0.983826
0.968282
0.942055
0.902047
0.840917
0.765742
0.699141
0.70717
0.784976
0.861481
0.920741
0.956897
0.979753
0.990703
0.987868
0.963379
0.892163
0.747346
0.532365
0.303904
0.131093
0.0393666
0.00593992
0 
0 
0 
0 
0 
0 
0 
1.08214e-05
6.34717e-05
6.62445e-05
0 
0 
0 
0 
0 
0 
0 
0 
0.0137088
0.0643599
0.18557
0.386619
0.620674
0.813755
0.927873
0.97671
0.991404
0.989798
0.976191
0.951498
0.910163
0.840994
0.741476
0.634375
0.623508
0.715743
0.812549
0.887354
0.935714
0.965955
0.983023
0.983022
0.965954
0.935711
0.887349
0.812542
0.715733
0.623503
0.634381
0.741489
0.841006
0.910171
0.951504
0.976194
0.989799
0.991405
0.97671
0.927873
0.813755
0.620674
0.386619
0.185571
0.0643603
0.0137089
0 
0 
0 
0 
0 
0 
0 
0 
6.5819e-05
5.53085e-05
0 
0 
0 
0 
0 
0 
0 
0.00254072
0.0251196
0.0961254
0.246566
0.468363
0.697058
0.864184
0.951052
0.984685
0.992927
0.988058
0.973892
0.947843
0.902321
0.823494
0.70306
0.566043
0.551564
0.66936
0.787682
0.874428
0.93042
0.96404
0.982437
0.982436
0.964039
0.930417
0.874424
0.787675
0.669351
0.55156
0.566052
0.703075
0.823505
0.902329
0.947848
0.973895
0.98806
0.992927
0.984685
0.951053
0.864185
0.69706
0.468365
0.246568
0.0961263
0.0251199
0.00254078
0 
0 
0 
0 
0 
0 
0 
5.55913e-05
4.13759e-05
0 
0 
0 
0 
0 
0 
0 
0.00666557
0.0405463
0.133995
0.311532
0.545436
0.761046
0.901194
0.967081
0.989682
0.993664
0.987021
0.971278
0.944116
0.893163
0.80391
0.665582
0.504365
0.488761
0.630869
0.767854
0.864209
0.926414
0.962608
0.982045
0.982044
0.962607
0.926412
0.864205
0.767848
0.630861
0.488759
0.504374
0.665595
0.80392
0.893169
0.94412
0.971281
0.987023
0.993665
0.989683
0.967082
0.901196
0.761048
0.545438
0.311534
0.133996
0.040547
0.00666577
0 
0 
0 
0 
0 
0 
0 
4.0433e-05
8.9177e-06
0 
0 
0 
0 
0 
0 
6.77376e-05
0.0127199
0.0599667
0.177062
0.377594
0.61559
0.812703
0.928081
0.977121
0.992907
0.993937
0.985688
0.969071
0.938543
0.880224
0.778106
0.625557
0.449158
0.438657
0.602231
0.753558
0.857216
0.923747
0.961616
0.981744
0.981744
0.961615
0.923745
0.857213
0.753554
0.602224
0.438654
0.449165
0.625567
0.778114
0.880229
0.938546
0.969073
0.985689
0.993937
0.992907
0.977122
0.928082
0.812705
0.615593
0.377597
0.177064
0.059968
0.0127202
6.78169e-05
0 
0 
0 
0 
0 
0 
9.43441e-06
0 
0 
0 
0 
0 
0 
0 
0.00199743
0.0208363
0.0833392
0.223866
0.442301
0.677277
0.853256
0.94692
0.983392
0.994231
0.993669
0.98435
0.966049
0.930392
0.862555
0.746473
0.583173
0.403419
0.403259
0.584357
0.744581
0.853448
0.922083
0.96093
0.981417
0.981417
0.960929
0.922082
0.853446
0.744578
0.584352
0.403256
0.403424
0.583179
0.746478
0.862558
0.930394
0.96605
0.984351
0.99367
0.994231
0.983393
0.946921
0.853259
0.677282
0.442306
0.223869
0.083341
0.0208369
0.00199751
0 
0 
0 
0 
0 
0 
0 
0 
0 
0 
0 
0 
0 
0 
0.00461943
0.0311578
0.110242
0.27287
0.503701
0.730014
0.884568
0.959886
0.987453
0.994991
0.99266
0.982556
0.961508
0.919812
0.841105
0.712481
0.543882
0.370768
0.385844
0.576291
0.740372
0.851799
0.920865
0.96027
0.981042
0.981042
0.960269
0.920864
0.851798
0.740371
0.576287
0.385843
0.37077
0.543885
0.712483
0.841107
0.919813
0.961509
0.982557
0.992661
0.994991
0.987453
0.959888
0.884571
0.730019
0.503707
0.272874
0.110245
0.0311587
0.00461972
0 
0 
0 
0 
0 
0 
0 
0 
0 
0 
0 
0 
0 
0 
0.00824634
0.0435947
0.140136
0.322566
0.560576
0.774332
0.908717
0.969172
0.990547
0.995265
0.99145
0.980005
0.956056
0.907775
0.819331
0.680733
0.511603
0.360072
0.385526
0.5755
0.739853
0.850744
0.919482
0.959444
0.980662
0.980662
0.959444
0.919482
0.850745
0.739854
0.575499
0.385527
0.360076
0.511604
0.680733
0.819331
0.907775
0.956056
0.980005
0.99145
0.995266
0.990548
0.969174
0.90872
0.774337
0.560583
0.322572
0.140139
0.0435962
0.00824665
0 
0 
0 
0 
0 
0 
0 
0 
0 
0 
0 
0 
0 
0.00068232
0.0128593
0.0581521
0.172247
0.37187
0.612047
0.811409
0.927059
0.976635
0.992722
0.995452
0.990344
0.976959
0.950088
0.895226
0.796744
0.653651
0.485603
0.355698
0.401818
0.579121
0.741657
0.847916
0.917868
0.958227
0.980312
0.980312
0.958227
0.917869
0.847918
0.741661
0.579124
0.401824
0.355699
0.485602
0.65365
0.796741
0.895224
0.950087
0.976959
0.990344
0.995452
0.992723
0.976636
0.927062
0.811414
0.612055
0.371877
0.172252
0.0581541
0.01286
0.000682449
0 
0 
0 
0 
0 
0 
0 
0 
0 
0 
0 
0 
0.0020121
0.0185348
0.0746108
0.205976
0.419525
0.658087
0.841616
0.941255
0.98147
0.994379
0.995477
0.988703
0.973691
0.94112
0.877442
0.765255
0.612498
0.443129
0.339525
0.411879
0.584947
0.737942
0.843178
0.914932
0.956989
0.979947
0.979948
0.956989
0.914934
0.843182
0.737946
0.584954
0.411884
0.339523
0.443121
0.612489
0.765249
0.877438
0.941118
0.97369
0.988702
0.995477
0.994379
0.981471
0.941258
0.841621
0.658095
0.419533
0.205982
0.0746134
0.0185354
0.00201211
0 
0 
0 
0 
0 
0 
0 
0 
0 
0 
0 
0 
0.00374044
0.0252551
0.0927336
0.240519
0.464806
0.698427
0.866149
0.951825
0.984915
0.995224
0.99484
0.986658
0.967646
0.927719
0.848156
0.719699
0.546793
0.377138
0.302932
0.4017
0.584402
0.725
0.83713
0.910726
0.956193
0.97959
0.97959
0.956194
0.910728
0.837134
0.725006
0.584411
0.401705
0.302928
0.377125
0.54678
0.719688
0.848148
0.927715
0.967644
0.986657
0.99484
0.995225
0.984915
0.951827
0.866154
0.698435
0.464814
0.240526
0.0927369
0.0252564
0.00374086
0 
0 
0 
0 
0 
0 
0 
0 
0 
0 
0 
0 
0.00588563
0.0329665
0.112208
0.275187
0.507095
0.733369
0.88594
0.95971
0.987421
0.995713
0.993776
0.983182
0.959082
0.907685
0.811706
0.662052
0.480478
0.307609
0.25577
0.385813
0.568342
0.711766
0.828712
0.908051
0.955246
0.979468
0.979469
0.955247
0.908055
0.828718
0.711775
0.568351
0.38582
0.255767
0.307598
0.480464
0.662039
0.811697
0.907679
0.959079
0.983181
0.993776
0.995712
0.987422
0.959712
0.885944
0.733377
0.507104
0.275194
0.112212
0.0329681
0.00588597
0 
0 
0 
0 
0 
0 
0 
0 
0 
0 
0 
0.000262108
0.00852218
0.0415804
0.132731
0.309333
0.546139
0.763348
0.902025
0.965712
0.989504
0.995396
0.991686
0.978311
0.947093
0.882726
0.768336
0.602362
0.418177
0.252194
0.223944
0.367912
0.548753
0.699492
0.82204
0.905949
0.954576
0.979338
0.979338
0.954578
0.905954
0.822048
0.699502
0.548763
0.367921
0.223946
0.252187
0.418165
0.602348
0.768325
0.882718
0.947088
0.978309
0.991684
0.995396
0.989504
0.965714
0.902029