# vtk DataFile Version 3.0
fluid_state
ASCII
DATASET RECTILINEAR_GRID
DIMENSIONS 100 100 1
X_COORDINATES 100 double
0 1 2 3 4 5 6 7 8 9 10 11 12 13 14 15 16 17 18 19 20 21 22 23 24 25 26 27 28 29 30 31 32 33 34 35 36 37 38 39 40 41 42 43 44 45 46 47 48 49 50 51 52 53 54 55 56 57 58 59 60 61 62 63 64 65 66 67 68 69 70 71 72 73 74 75 76 77 78 79 80 81 82 83 84 85 86 87 88 89 90 91 92 93 94 95 96 97 98 99 
Y_COORDINATES 100 double
0 1 2 3 4 5 6 7 8 9 10 11 12 13 14 15 16 17 18 19 20 21 22 23 24 25 26 27 28 29 30 31 32 33 34 35 36 37 38 39 40 41 42 43 44 45 46 47 48 49 50 51 52 53 54 55 56 57 58 59 60 61 62 63 64 65 66 67 68 69 70 71 72 73 74 75 76 77 78 79 80 81 82 83 84 85 86 87 88 89 90 91 92 93 94 95 96 97 98 99 
Z_COORDINATES 1 double
0
POINT_DATA 10000
SCALARS vorticity float 1
LOOKUP_TABLE default
0.00876574
0.0270358
-0.0385146
-0.113702
-0.164049
-0.226503
-0.303643
-0.361112
-0.410057
-0.47973
-0.55206
-0.602744
-0.656391
-0.729501
-0.794848
-0.842404
-0.901388
-0.973471
-1.02847
-1.07278
-1.13522
-1.20001
-1.24243
-1.28535
-1.34646
-1.3964
-1.42556
-1.46602
-1.51771
-1.54611
-1.56327
-1.59777
-1.62771
-1.63117
-1.63686
-1.65533
-1.65405
-1.63395
-1.62621
-1.61722
-1.58178
-1.54301
-1.51694
-1.47343
-1.40935
-1.35632
-1.30411
-1.22541
-1.14404
-1.07724
-0.994221
-0.891568
-0.804488
-0.720836
-0.611287
-0.503159
-0.415174
-0.31245
-0.192335
-0.0926284
-0.00158118
0.112089
0.221519
0.306371
0.398947
0.504968
0.591535
0.66445
0.748499
0.829445
0.891394
0.947957
1.00502
1.05549
1.09658
1.12649
1.15024
1.17649
1.19294
1.18814
1.18459
1.18948
1.17253
1.13764
1.11422
1.08726
1.0347
0.981098
0.93452
0.870256
0.796045
0.730324
0.652906
0.561921
0.482208
0.397639
0.288263
0.192102
0.108119
-0.00350227
-0.0187005
-0.0825152
-0.121398
-0.203181
-0.323683
-0.437798
-0.551968
-0.656247
-0.775185
-0.897019
-0.999979
-1.09663
-1.23326
-1.35604
-1.4339
-1.54255
-1.6998
-1.79247
-1.85262
-1.99593
-2.14827
-2.18878
-2.2593
-2.43634
-2.53553
-2.53002
-2.64443
-2.81728
-2.8316
-2.82132
-2.97621
-3.08562
-3.0197
-3.03639
-3.19283
-3.19263
-3.08245
-3.13788
-3.22798
-3.11175
-3.00431
-3.0659
-3.03696
-2.84666
-2.77168
-2.77749
-2.62346
-2.42411
-2.36071
-2.25662
-2.03321
-1.86751
-1.75647
-1.55264
-1.34014
-1.18978
-0.991161
-0.763021
-0.605807
-0.412167
-0.159923
0.00400933
0.141948
0.403937
0.616651
0.695342
0.877798
1.15041
1.24359
1.29735
1.53031
1.70599
1.69651
1.7928
1.98678
2.0216
2.00277
2.11426
2.17961
2.13775
2.15254
2.18865
2.13275
2.09284
2.07818
1.99418
1.90281
1.84944
1.73367
1.60092
1.51212
1.36867
1.19077
1.09408
0.939366
0.692916
0.59318
0.524825
0.210636
-0.0705073
-0.0759696
-0.199794
-0.106423
-0.0545526
-0.130525
-0.170615
-0.17382
-0.212366
-0.284974
-0.311536
-0.320813
-0.369617
-0.438427
-0.456494
-0.46884
-0.533164
-0.596044
-0.596646
-0.625146
-0.703518
-0.739553
-0.732521
-0.790623
-0.860269
-0.861494
-0.868625
-0.948473
-0.982718
-0.958362
-1.00156
-1.07103
-1.0588
-1.04845
-1.10948
-1.14097
-1.09769
-1.11452
-1.16742
-1.13933
-1.09555
-1.13711
-1.14568
-1.06518
-1.04647
-1.09295
-1.02432
-0.923787
-0.954177
-0.957233
-0.805512
-0.747015
-0.809921
-0.707832
-0.52865
-0.563229
-0.581395
-0.369932
-0.266273
-0.366053
-0.257665
-0.027253
-0.0562331
-0.108957
0.110435
0.239306
0.141078
0.206275
0.416124
0.417504
0.366777
0.493734
0.594674
0.569592
0.597199
0.65959
0.690512
0.722455
0.730701
0.709609
0.76648
0.801464
0.726526
0.718633
0.789598
0.722627
0.646423
0.703564
0.667955
0.538773
0.57598
0.587358
0.412413
0.382863
0.475602
0.3049
0.166911
0.331916
0.267458
0.0259684
-0.0424264
-0.143602
-0.255337
-0.101871
0.0203351
0.0249511
0.0530693
0.0483472
0.0352956
0.0702117
0.102797
0.0767641
0.0640956
0.123832
0.148437
0.0912384
0.102709
0.1904
0.173504
0.0967597
0.165016
0.253918
0.166309
0.115411
0.257286
0.286072
0.143643
0.18222
0.347122
0.273942
0.139138
0.283077
0.394718
0.225466
0.180609
0.378143
0.372501
0.180186
0.253242
0.421474
0.294579
0.170405
0.326442
0.387185
0.211029
0.197053
0.349705
0.293629
0.156859
0.22762
0.296593
0.188866
0.13896
0.211026
0.190472
0.111152
0.122598
0.128345
0.0790124
0.0717265
0.0687555
0.0119062
0.0142561
0.0434576
-0.0372646
-0.0859621
-0.00126198
-0.0258628
-0.161998
-0.111709
-0.0104266
-0.140399
-0.22916
-0.0853166
-0.0749262
-0.240945
-0.199437
-0.0778482
-0.170369
-0.237133
-0.130858
-0.133719
-0.215647
-0.154208
-0.121909
-0.201552
-0.163544
-0.0945445
-0.171725
-0.177461
-0.0725734
-0.11422
-0.16867
-0.0592753
-0.0496213
-0.150935
-0.0491161
0.0160613
-0.0818577
0.0202649
0.0848263
-0.223002
-0.38786
-0.131186
0.0250502
-0.0143456
-0.00855267
-0.0237211
-0.0200432
-0.00616943
-0.0219463
-0.0328783
-0.0230654
-0.0222421
-0.0399558
-0.0420482
-0.029727
-0.0419067
-0.0569431
-0.0428139
-0.0423338
-0.0688305
-0.0658652
-0.0407773
-0.0627007
-0.0923834
-0.0563969
-0.0360115
-0.0917633
-0.0955527
-0.0306087
-0.0497153
-0.116064
-0.0731824
-0.0154389
-0.0807977
-0.12188
-0.0389368
-0.0219339
-0.114557
-0.105283
-0.00737792
-0.0444836
-0.135521
-0.0676131
0.0129907
-0.0761397
-0.134916
-0.0161953
0.0192029
-0.11506
-0.102956
0.039286
-0.012427
-0.141515
-0.0377992
0.0688127
-0.0710874
-0.120318
0.0450625
0.0416913
-0.111849
-0.0470274
0.0854654
-0.0136282
-0.0886971
0.0338984
0.0677528
-0.0348745
-0.0247159
0.0529865
0.0348901
0.00329521
0.0173143
0.028029
0.0548433
0.0552404
0.00445401
0.0321417
0.104653
0.0534035
0.00194384
0.0833862
0.0987314
0.0136758
0.045938
0.0976849
0.0202522
0.0217674
0.0995199
0.0277321
-0.0229344
0.0885318
0.0642931
-0.0570902
0.0387975
0.114679
-0.0840074
0.0384021
0.33327
0.185255
-0.283296
-0.518952
-0.153862
0.0644854
-0.022757
-0.0178135
0.00747608
0.0271527
-0.0023736
-0.0246987
0.0192712
0.0392105
-0.0147505
-0.0253999
0.0421396
0.0397262
-0.0403599
-0.0136693
0.0707913
0.0131574
-0.0608487
0.028424
0.0824488
-0.0347754
-0.0507024
0.0815327
0.0581003
-0.0719607
0.000704917
0.121926
0.00574625
-0.0753489
0.0699996
0.105534
-0.0489886
-0.0386727
0.11371
0.0506799
-0.075408
0.0259925
0.107642
-0.0173053
-0.0526841
0.0744946
0.055991
-0.0507179
0.00587259
0.0726316
-0.00514888
-0.0307535
0.0458423
0.021964
-0.0300074
0.0229991
0.0302628
-0.0329025
-0.00022022
0.0483084
-0.0292558
-0.0447559
0.0598152
0.0199072
-0.0849656
0.00750407
0.0845728
-0.0581192
-0.0871257
0.0791433
0.0413117
-0.117566
-0.0240595
0.0983653
-0.0364299
-0.1025
0.0425503
0.0443384
-0.0647994
-0.0144446
0.0456683
-0.0154755
-0.0101705
0.037435
-0.0136238
-0.0211382
0.0440678
0.00454097
-0.0451886
0.0268203
0.027347
-0.0426873
0.00536578
0.0392356
-0.0398204
-0.0134069
0.0572521
-0.0195368
-0.0742361
0.270393
0.545621
0.260807
-0.335851
-0.598634
-0.190504
0.0494528
-0.0217367
0.0116992
-0.000471095
-0.0171867
-0.00577873
0.0143777
-0.00269252
-0.0240898
0.00149839
0.0170229
-0.0216734
-0.0277813
0.0183001
0.010804
-0.0421991
-0.0185298
0.0357264
-0.0142201
-0.0624928
0.00936098
0.0469998
-0.051312
-0.0592992
0.0585299
0.0276418
-0.086647
-0.0200831
0.0906849
-0.0116508
-0.0955762
0.0417226
0.0830014
-0.0647809
-0.0675916
0.0831156
0.0447637
-0.0951645
-0.0149902
0.10157
-0.00539825
-0.0955792
0.0316473
0.0901625
-0.052153
-0.0749262
0.0708854
0.0586846
-0.0864827
-0.0391962
0.0928729
0.00520684
-0.0993292
0.0168464
0.0821737
-0.0486598
-0.0720741
0.0565917
0.0347866
-0.0721
-0.0217036
0.0516433
-0.00729696
-0.0483527
-0.00197673
0.0164273
0.000174005
-0.021314
-0.0316399
0.0100591
0.0363414
-0.0313827
-0.0487091
0.0559074
0.0510259
-0.0492981
-0.00121531
0.0767024
0.00331428
-0.0276722
0.0482053
0.0196129
-0.0266393
0.0401865
0.0318974
-0.0456667
0.022119
0.0625708
-0.0436399
-0.021369
0.0838179
-0.00627136
-0.052514
0.00405167
0.28028
0.619049
0.36485
-0.404584
-0.704256
-0.235674
0.045736
-0.00997819
0.0197456
-0.0112749
-0.0201324
0.0051608
0.0206614
-0.0117837
-0.0266647
0.0157682
0.0267806
-0.0266754
-0.0286406
0.0334114
0.0158599
-0.0485688
-0.00949927
0.0488365
-0.0113757
-0.0513994
0.0227134
0.0389341
-0.0471364
-0.0315255
0.0544086
0.00714322
-0.0548955
0.0176017
0.0588503
-0.0285383
-0.0407358
0.052879
0.0295442
-0.0495431
0.00200077
0.0579763
-0.0132711
-0.038276
0.041254
0.0255457
-0.0457609
0.00765542
0.0493403
-0.0289016
-0.0330912
0.0500871
0.00610892
-0.0646656
0.0221635
0.0504369
-0.0604123
-0.0362713
0.0740239
-0.00519302
-0.0917401
0.0365689
0.0711435
-0.0840496
-0.0561913
0.097049
0.00324632
-0.12211
0.0273462
0.0979521
-0.0810985
-0.0904576
0.085539
0.0341848
-0.108446
-0.0167021
0.0740794
-0.0173949
-0.0422701
0.0335661
0.0203576
0.00209455
0.0393202
0.00842244
-0.0148714
0.0481096
0.0379476
-0.0326544
0.011352
0.0529433
-0.00971758
-0.0085438
0.0449176
-0.00261257
-0.0153117
0.0492696
0.00439363
-0.0434896
0.0843546
-0.0240315
0.190806
0.771034
0.480725
-0.474869
-0.864315
-0.279385
0.0961591
-0.0142803
-0.0224455
-0.00456585
0.0290299
-0.0052138
-0.035011
0.00605384
0.0338388
-0.0208628
-0.0413501
0.0279929
0.0309106
-0.046404
-0.0309679
0.0529176
0.0114324
-0.0738857
0.00023941
0.0736624
-0.034584
-0.081625
0.0545979
0.0612441
-0.0917555
-0.0499457
0.104825
0.0151223
-0.119266
0.0206899
0.121917
-0.046856
-0.0980273
0.0845716
0.08346
-0.0932518
-0.0398556
0.114256
0.0223156
-0.0971454
0.0191667
0.10278
-0.030702
-0.0758035
0.0543423
0.0651565
-0.0574923
-0.0488632
0.0667401
0.0316236
-0.0687699
-0.0145114
0.0635323
-0.00262465
-0.0628739
0.0124529
0.0454082
-0.0264164
-0.0365719
0.0192319
0.0173994
-0.0253537
-0.0273941
-0.00495969
0.0164184
-0.00219065
-0.055884
-0.0206963
0.0539427
-0.0095475
-0.0883428
0.013552
0.0892664
-0.0227668
-0.0498752
0.0672012
0.0513776
-0.036505
0.0096269
0.0387558
-0.0189288
0.0101153
0.044934
-0.025358
-0.0129702
0.0591724
-0.00333709
-0.0453831
0.0497352
0.0340709
-0.0485333
0.0154965
0.0824298
-0.126071
0.332194
1.06542
0.578167
-0.528142
-0.942691
-0.283915
0.0934091
-0.0356669
5.31179e-05
0.00552021
0.000801438
-0.0088097
-0.00698421
0.000850864
0.00658589
-0.00652986
-0.0158907
0.00695592
0.00857314
-0.0165583
-0.0128255
0.0135207
0.00374698
-0.0204706
-0.00109604
0.0140149
-0.00888226
-0.0147878
0.00617818
-0.00496106
-0.0174314
0.00648049
0.000239613
-0.0191019
0.00307514
0.025589
-0.00727161
-0.0199647
0.0284523
0.023543
-0.0261477
-0.00280778
0.0459984
-0.000393601
-0.0404039
0.0314219
0.0468726
-0.0449729
-0.0350294
0.0702533
0.0161141
-0.0868394
0.0154514
0.0850378
-0.0541756
-0.0827821
0.0769104
0.0454715
-0.114013
-0.0133649
0.110306
-0.040127
-0.110325
0.0655798
0.0672394
-0.115839
-0.0443688
0.110671
-0.0166101
-0.12604
0.0288613
0.0817865
-0.0805216
-0.0807252
0.0477005
0.0221171
-0.0426903
-0.00290694
0.0261984
0.0209926
0.0452166
0.0130877
-0.0278265
0.0404009
0.0642541
-0.0234568
-0.0168417
0.0601433
0.0202204
-0.0217002
0.0314413
0.0230335
-0.0151137
0.0306863
0.0300616
-0.0330757
0.0281695
0.0578032
-0.0109737
-0.119543
0.489888
1.24547
0.677665
-0.585082
-1.01753
-0.334012
0.0554822
-0.0271725
0.0432897
-0.00493887
-0.0403091
0.00444657
0.0392849
-0.0178864
-0.0494623
0.0213145
0.0433603
-0.0376803
-0.0466352
0.0483187
0.0336652
-0.0703509
-0.0254964
0.0774545
-0.000624631
-0.0893952
0.0265262
0.0814681
-0.0623783
-0.079837
0.0756409
0.0425213
-0.116775
-0.0198017
0.11676
-0.0194358
-0.11269
0.0551287
0.107982
-0.0705885
-0.0636531
0.102665
0.0485496
-0.0867113
-0.000647565
0.0962351
-0.0122342
-0.0620299
0.0436552
0.054755
-0.0374415
-0.0300796
0.0420979
0.019832
-0.0317804
-0.0083529
0.0269142
0.00841109
-0.0233638
-0.0100029
0.0118858
0.00153113
-0.015675
-0.0141068
0.00665036
0.00928778
-0.0212265
-0.0357316
0.0117873
0.0269054
-0.0579173
-0.0646225
0.0481192
0.0342421
-0.102643
-0.0495372
0.104282
0.0350434
-0.0726722
0.0249584
0.0949483
-0.000715914
-0.0237102
0.0317805
0.00236203
-0.00293096
0.0430464
-0.00428771
-0.0331921
0.0449584
0.0328951
-0.0448454
0.0121217
0.0530638
-0.0229042
-0.0132733
0.0557706
-0.0139511
0.00256092
-0.0646717
0.488845
1.37618
0.806948
-0.654985
-1.17905
-0.397415
0.117852
-0.00931751
-0.0158474
-0.0142902
0.0196841
-0.000811696
-0.0223286
0.00345977
0.0130677
-0.0124009
-0.015642
0.00809467
0.00726416
-0.0156779
-0.0075833
0.0161873
0.000700733
-0.022187
-0.000309513
0.0216793
-0.00675519
-0.0303822
0.0143038
0.0287582
-0.0401261
-0.0429054
0.0346621
0.0222836
-0.0648068
-0.0189704
0.0772318
0.0120314
-0.066204
0.0169051
0.0788626
-0.0188791
-0.0583134
0.052644
0.063183
-0.0545918
-0.0401636
0.0806688
0.032418
-0.09378
-0.00599645
0.107473
-0.0226563
-0.108331
0.053068
0.0914926
-0.0958139
-0.0741578
0.108684
0.0226285
-0.128845
0.00578294
0.104063
-0.0688566
-0.102593
0.0759544
0.0418085
-0.120379
-0.0378465
0.091182
-0.0228863
-0.112153
-0.0100195
0.0369542
-0.0228064
-0.0295452
0.00390938
0.0357509
0.0772189
0.03132
-0.0487222
0.0163537
0.0912779
0.000739478
-0.0505198
0.0440895
0.0571503
-0.0166779
0.010157
0.0391968
-0.00589921
0.0100193
0.041915
-0.0125836
-0.00300696
0.0562913
0.0014805
-0.0411057
0.089871
-0.1164
0.471655
1.60782
0.934252
-0.717425
-1.302
-0.405756
0.151019
-0.0385098
-0.0299742
0.00802472
0.03342
-0.0155269
-0.0423354
0.0114494
0.0365393
-0.0247244
-0.044034
0.0295868
0.0420537
-0.0480862
-0.0411672
0.0584565
0.0231382
-0.0732578
-0.00749447
0.0764656
-0.0172853
-0.0775101
0.0375674
0.0595872
-0.0731265
-0.0522295
0.0690607
-0.00197107
-0.0980997
0.0170075
0.0844827
-0.0458029
-0.0631874
0.0788309
0.0586963
-0.0642897
-0.00958349
0.0821727
0.00149567
-0.0451883
0.0421989
0.0385732
-0.0310171
0.00355681
0.0419494
-0.0107477
-0.0177519
0.0315415
0.00207124
-0.0226202
0.0190472
0.0146746
-0.0282675
-0.00620735
0.0277605
-0.0195765
-0.0373491
0.0182717
0.0106162
-0.0533635
-0.0185835
0.0504302
-0.032425
-0.104746
0.0118225
0.0675149
-0.0867884
-0.120202
0.073567
0.107066
-0.046258
-0.0251554
0.102927
0.0612989
-0.0266687
-0.00297545
0.00826163
0.00406126
0.045863
0.0125219
-0.0457794
0.0203428
0.0585002
-0.0300486
-0.0220386
0.0564062
0.00976655
-0.0314704
0.0355487
0.0192949
-0.0321385
0.0160735
0.0727292
-0.202764
0.633472
1.91932
1.05274
-0.768071
-1.32701
-0.405833
0.0781365
-0.0550655
0.0539409
0.00334172
-0.0516811
0.00367219
0.0443175
-0.0179213
-0.0468424
0.0193594
0.0361106
-0.0351607
-0.0336023
0.0396415
0.0262912
-0.0476167
-0.018853
0.0541781
0.00280668
-0.064633
0.00984879
0.0697966
-0.0321946
-0.0679245
0.0514199
0.0455957
-0.0957503
-0.0579362
0.0921721
0.0126123
-0.118643
0.0134291
0.126026
-0.019801
-0.0966097
0.0608904
0.0968708
-0.0551317
-0.055437
0.0830864
0.0528997
-0.0803118
-0.0196479
0.0993711
0.00984964
-0.099849
0.0152076
0.107355
-0.0472414
-0.100218
0.0706966
0.0687699
-0.10245
-0.0552039
0.0949575
-0.00800315
-0.116767
0.0185784
0.0685846
-0.0834025
-0.0895086
0.0602682
0.026093
-0.106515
-0.0727249
0.0126707
0.00038982
-0.0366005
-0.0254643
0.0348658
0.1185
0.0828612
-0.0636565
-0.0353901
0.106559
0.0517214
-0.0714064
-0.0017732
0.0804611
0.0140583
-0.00739364
0.0367412
0.0128599
-0.000479171
0.0438824
0.0112087
-0.0195313
0.0383492
0.0285266
-0.0347277
0.0198733
0.0341709
0.0119398
-0.193897
0.742889
2.11908
1.19365
-0.827284
-1.46679
-0.505074
0.105279
-0.0108938
0.023765
-0.0249054
-0.0167419
0.0121874
0.00942334
-0.0158375
-0.0211997
0.00914722
0.0221879
-0.0205091
-0.0290912
0.025568
0.0255352
-0.0369354
-0.0192456
0.0450157
0.00638246
-0.0498807
0.00162645
0.0456247
-0.0215777
-0.0370689
0.032537
0.012016
-0.0516235
-0.0183743
0.0148181
-0.045874
-0.0377
0.0507906
0.0203761
-0.0479546
0.0110116
0.0725211
-0.0016783
-0.0322514
0.0491298
0.034849
-0.0335108
0.0217697
0.0621168
-0.0320912
-0.027814
0.0794467
0.0180414
-0.0696838
0.0274939
0.0720625
-0.049429
-0.0518138
0.065603
0.0182861
-0.0782672
-0.00759014
0.0498768
-0.0424459
-0.0630138
0.0447718
0.00861981
-0.118084
-0.0438253
0.0784109
-0.0509569
-0.183823
-0.00923776
0.14914
0.0341703
-0.0431311
0.0768795
0.124051
0.0158367
-0.0386986
-0.0266971
0.00728024
0.0670252
0.0385777
-0.0541764
-0.012578
0.073846
-0.0011565
-0.0490908
0.0387947
0.0419765
-0.0331925
0.0101983
0.0411721
-0.0246404
-0.00991729
0.0442472
-0.0373969
0.0191895
-0.153089
0.775358
2.33723
1.35237
-0.892516
-1.63926
-0.537974
0.20736
-0.0265482
-0.0647676
-0.001672
0.0680442
-0.0186691
-0.0695734
0.0224119
0.0575864
-0.0403373
-0.0587278
0.0456767
0.0496731
-0.0573292
-0.0426862
0.0690514
0.0331851
-0.0803707
-0.0166929
0.0905623
-0.0116127
-0.0969727
0.0337626
0.0916197
-0.0611071
-0.0785898
0.0850494
0.0321894
-0.142369
-0.0381804
0.12037
-0.0234824
-0.133099
0.0652939
0.139958
-0.0532654
-0.084427
0.0848684
0.0779022
-0.0632873
-0.0282528
0.0797217
0.0281677
-0.0586232
3.68332e-05
0.0780201
-0.000391489
-0.0745538
0.0234769
0.0749379
-0.0448231
-0.0738322
0.045479
0.0258268
-0.0909027
-0.0349075
0.0498711
-0.0425024
-0.100298
0.0177572
0.0523424
-0.0755862
-0.119923
-0.0480566
-0.0150096
-0.0396861
-0.0422187
0.0330641
0.169117
0.168284
-0.0449882
-0.11723
0.0705812
0.118544
-0.0547014
-0.0675088
0.0679254
0.0661676
0.00348408
0.0205035
0.0187299
-0.0022494
0.0416976
0.0343713
-0.0172707
0.0209049
0.0473797
-0.0236972
-0.0122598
0.0370391
-0.00558395
-0.0399193
0.083541
-0.230964
0.822171
2.64955
1.50033
-0.947838
-1.66445
-0.493433
0.140024
-0.0811589
0.0265699
0.0218269
-0.0292014
-0.0182537
0.0232864
-0.000513022
-0.0215714
0.000840008
0.00579324
-0.00718351
-0.00509672
0.00275049
-0.000144907
0.00203564
0.00462261
-0.00250143
-0.00190487
0.0028487
-0.00660144
-0.00493459
0.00135957
-0.00709512
0.0010551
0.0193754
-0.00539548
-0.0376122
-0.00743037
0.00283805
-0.0724872
-0.0655854
0.0546004
0.0589121
-0.0508209
-0.0267102
0.0862197
0.0469773
-0.0491994
0.0142248
0.0828022
-0.0166346
-0.0479292
0.0923915
0.0635234
-0.0896954
0.00668323
0.132114
-0.0187506
-0.104693
0.065813
0.07971
-0.0960272
-0.0603383
0.0748425
-0.000267474
-0.0931752
0.0102726
0.0396519
-0.108354
-0.0999598
0.0585652
-0.0106361
-0.228279
-0.139758
0.138048
0.149669
0.0083783
0.0451214
0.150553
0.0909952
-0.0453619
-0.0940429
-0.0240112
0.0982601
0.0982369
-0.0472625
-0.0622784
0.0645012
0.0384223
-0.0588284
0.0083131
0.066445
-0.0128194
-0.0157875
0.0440674
-0.00145555
-0.0370585
0.0349051
0.00278355
-0.0526962
0.00611631
0.0877656
-0.315972
0.968855
2.99951
1.66568
-0.995793
-1.71773
-0.562541
0.0750726
-0.0368779
0.0843864
-0.0251222
-0.0720852
0.0250069
0.0598454
-0.0426391
-0.0614021
0.0430378
0.0529478
-0.0512051
-0.0541446
0.0599386
0.0459043
-0.0733676
-0.0351409
0.0903369
0.0232
-0.0970518
-0.000424438
0.0929502
-0.0355609
-0.0980709
0.0603448
0.0899654
-0.0753621
-0.0514739
0.0856365
-0.0225176
-0.156847
0.00727829
0.111712
-0.0682728
-0.091474
0.113272
0.106736
-0.0735903
-0.0460691
0.080564
0.0382663
-0.0248735
0.00763062
0.0359777
0.0165281
-0.0039716
0.0106386
0.031701
0.0108436
-0.0327505
-0.00697958
0.0172815
-0.0385226
-0.0500758
-0.00982976
-0.0370161
-0.0825157
-0.014132
0.0514581
-0.0343485
-0.128945
-0.121698
-0.0938707
-0.0921594
-0.0478845
0.0721267
0.241853
0.290159
0.0283733
-0.203498
-0.038509
0.156245
0.011879
-0.13253
-0.00931615
0.107678
0.0665722
0.0223816
0.0067471
-0.00570828
0.0372791
0.0564595
-0.00746565
0.00614514
0.0618713
-0.00393887
-0.0285302
0.0271108
0.00739609
-0.03937
0.0109497
-0.00869381
0.0276612
-0.283079
1.07433
3.25821
1.85568
-1.05258
-1.932
-0.675323
0.214691
0.0013311
-0.059818
-0.033035
0.0708997
0.00113777
-0.0713511
0.0115853
0.0577928
-0.0299291
-0.053198
0.0330793
0.0367678
-0.0387895
-0.0297481
0.0412671
0.0208989
-0.0413529
-0.0115703
0.0472821
0.00856044
-0.0567806
-0.00315864
0.0499324
-0.0250921
-0.0538984
0.0511984
0.0763155
-0.0590733
-0.0745539
0.0406178
-0.026452
-0.172274
-0.0436216
0.154206
0.0478377
-0.101565
0.011088
0.131489
0.0229137
-0.0741161
0.049386
0.0981184
-0.0469828
-0.024127
0.146322
0.0522522
-0.11321
0.0413873
0.139851
-0.0625808
-0.113966
0.0609398
0.0486347
-0.0956271
-0.0333406
0.0454242
-0.0867967
-0.136685
0.0227108
0.00831818
-0.290448
-0.335354
0.0567885
0.303657
0.173449
0.063528
0.136812
0.139828
-0.0234698
-0.172276
-0.111524
0.11464
0.208264
0.0268659
-0.114054
0.00235526
0.0608421
-0.0500123
-0.0269197
0.0724584
0.0292667
-0.0237604
0.0297501
0.0252675
-0.0446748
0.0065255
0.0281345
-0.0530213
-0.0297795
0.0505079
-0.0527081
0.0128886
-0.266778
1.18432
3.58378
2.03929
-1.11111
-2.00719
-0.609305
0.241335
-0.0824185
-0.0454259
0.0363524
0.0392835
-0.0482381
-0.0362517
0.0403076
0.0257376
-0.0422048
-0.0288936
0.0401767
0.0271153
-0.0502814
-0.0320582
0.0577574
0.0241399
-0.0664129
-0.0105595
0.0776237
0.000768748
-0.0797882
0.0172904
0.0629793
-0.0532199
-0.0535895
0.0739684
0.0575316
-0.0550317
-0.00520991
0.035946
-0.110529
-0.122489
0.0678404
0.0595427
-0.0997582
-0.0146953
0.1411
0.0399275
-0.0690973
0.00910797
0.0452875
0.0130835
0.0495545
0.0347571
-0.023542
0.0348757
0.0663156
-0.0138735
-0.0322857
0.0121168
-0.0154553
-0.0752571
-0.0769393
-0.0509322
-0.011952
0.0335939
-0.00040668
-0.103521
-0.194231
-0.270068
-0.262397
-0.0331374
0.243641
0.404148
0.428502
0.134356
-0.274527
-0.226015
0.130144
0.116858
-0.159189
-0.158529
0.0719641
0.173209
0.0868073
-0.00678639
-0.0269915
0.0267793
0.083556
0.0193165
-0.00825614
0.0658572
0.0230145
-0.0414718
0.017859
0.0237367
-0.0451101
-0.00576952
0.00766274
-0.0428768
-0.0336231
0.105869
-0.390899
1.24986
3.98115
2.22877
-1.15672
-1.9745
-0.597785
0.0834826
-0.0911049
0.117426
0.00604132
-0.111704
0.0142634
0.0996808
-0.0410807
-0.0934755
0.0536768
0.0761279
-0.0684356
-0.0653919
0.0701297
0.047976
-0.0800279
-0.0429814
0.0829749
0.0303026
-0.087038
-0.00773963
0.102145
-0.00715502
-0.11048
0.0166566
0.090197
-0.0604814
-0.0665216
0.130426
0.105308
-0.122212
-0.100256
0.044917
-0.11747
-0.244723
0.0429718
0.239016
0.0353422
-0.115366
0.0370384
0.151787
0.0223374
-0.0680762
0.0608631
0.10414
-0.0346951
0.01796
0.16732
0.0228778
-0.115204
0.027682
0.0832045
-0.0650717
-0.0808042
-0.00408069
-0.093892
-0.151985
-9.23492e-05
-0.0120518
-0.450208
-0.658806
-0.0533664
0.557844
0.475255
0.170863
0.0892835
0.104761
-0.0123722
-0.23398
-0.241377
0.0682194
0.350695
0.227529
-0.0860267
-0.112847
0.00607688
-0.0501004
-0.0596258
0.0621821
0.0804971
0.00477082
0.00590505
0.0331995
-0.0235391
-0.0250058
0.0308085
-0.0263475
-0.070226
0.0281995
0.00521261
-0.0787298
-0.0234304
0.13042
-0.444512
1.38552
4.39294
2.45829
-1.19738
-2.13905
-0.75335
0.160817
0.0106206
0.0150789
-0.0657004
0.0103707
0.048208
-0.0264041
-0.0350856
0.0248581
0.0196523
-0.0249151
-0.0189124
0.0132776
0.0120719
-0.01111
-0.021798
0.00263665
0.0206476
-0.00961391
-0.0254921
0.017411
0.0384169
-0.0142889
-0.021889
0.0185257
-0.0104833
-0.0413167
0.0244606
0.064637
0.0133878
0.00630528
0.0349901
-0.0886455
-0.210426
-0.040808
0.138761
-0.00103978
-0.102334
0.0739025
0.129929
-0.0424209
-0.0560652
0.0549925
0.00292239
0.0383333
0.159348
0.0355176
-0.0769544
0.0547636
0.0902262
-0.087744
-0.143771
-0.0210295
0.037011
0.040079
0.0331423
-0.0638302
-0.308258
-0.638505
-0.608842
0.126584
0.757261
0.751288
0.543906
0.181946
-0.361636
-0.464592
0.0113188
0.223734
-0.133888
-0.374196
-0.108212
0.275118
0.273145
0.0292018
-0.0728384
-0.0226592
0.104928
0.0913438
-0.00872293
0.0511088
0.0552918
-0.047788
-0.00260798
0.0446974
-0.0448369
-0.0291035
0.0209107
-0.0488949
-0.0502043
0.0401089
-0.0494117
0.0280052
-0.388593
1.55418
4.74073
2.68783
-1.24812
-2.31703
-0.765486
0.319587
-0.0397785
-0.113913
0.0135741
0.118039
-0.0471585
-0.110649
0.0660298
0.0891857
-0.0819794
-0.0744761
0.0865019
0.0567368
-0.0994567
-0.0542462
0.0947726
0.037706
-0.109756
-0.0319311
0.11421
0.0121723
-0.108835
0.0211923
0.13372
-0.0373715
-0.139695
0.0496301
0.0894456
-0.0893248
-0.0175097
0.210261
0.0954022
-0.191172
-0.124464
-0.0225011
-0.265109
-0.252436
0.184932
0.305359
0.0415266
-0.0853837
0.0537813
0.18048
0.0747228
-0.0495162
0.052129
0.0851252
-0.0294951
0.0125506
0.115368
0.0100938
-0.110126
-0.126593
-0.195621
-0.209908
-0.0794335
-0.20472
-0.891543
-1.09913
0.106137
1.13968
0.88722
0.2736
-0.0250997
-0.0825364
-0.0737058
-0.246532
-0.348951
-0.0274799
0.46938
0.563976
0.160109
-0.197815
-0.200017
-0.163759
-0.122695
0.052381
0.158879
0.0861262
-0.00367946
0.00350087
0.00436478
-0.0285695
0.00206813
0.00111053
-0.0766994
-0.0234472
0.0326265
-0.0634008
-0.0654254
0.0517379
-0.0428334
0.0332665
-0.429789
1.71352
5.17769
2.90702
-1.29525
-2.24437
-0.639896
0.170749
-0.139629
0.0726025
0.0587501
-0.0812255
-0.0362565
0.0901343
0.00855241
-0.090741
0.012827
0.0762244
-0.0343813
-0.0694798
0.035463
0.0499354
-0.04579
-0.0482166
0.0333047
0.0296027
-0.0416485
-0.0317369
0.0497454
0.036997
-0.0255174
-0.0020294
0.046744
-0.021042
-0.0975269
0.0274488
0.124953
0.00679628
-0.0277047
0.0891777
0.0278479
-0.274351
-0.276736
0.0953382
0.225639
0.00266494
-0.0711437
0.125619
0.0554143
-0.159544
-0.0522396
0.0636428
-0.0234818
0.0852048
0.194099
-0.00769502
-0.108772
0.0943519
0.192193
0.0977682
0.0199981
-0.138218
-0.648664
-1.26701
-0.818366
0.983434
1.86581
1.15956
0.373122
-0.0702872
-0.550119
-0.670895
-0.131847
0.282933
-0.0943992
-0.660073
-0.557325
0.268393
0.639217
0.215579
-0.0712048
-0.145134
0.0540335
0.244501
0.057842
-0.0160945
0.0685647
-0.0278427
-0.0338468
0.0693414
-0.0248883
-0.0678329
0.0219887
-0.0347249
-0.0915045
0.0297882
0.00832192
-0.090895
-0.0332716
0.176941
-0.568711
1.76433
5.6587
3.16321
-1.32591
-2.28719
-0.759855
0.0878777
-0.0292146
0.12299
-0.0584575
-0.0928358
0.0724745
0.0712914
-0.0860318
-0.0494067
0.0897363
0.0274799
-0.0922105
-0.0246699
0.0827875
0.00898327
-0.0964956
-0.0141082
0.0924614
-0.00357494
-0.106385
0.00277977
0.102579
-0.0150577
-0.0814743
0.0722684
0.121556
-0.0835015
-0.134706
0.0643962
0.0487304
-0.0738041
0.104827
0.269064
0.0340625
-0.26817
-0.154641
-0.136616
-0.489285
-0.232474
0.370426
0.375219
0.0994791
-0.0227269
0.145512
0.337804
0.151871
-0.202738
-0.18655
0.0104046
-0.00468025
-0.208326
-0.398308
-0.458997
-0.427019
-0.763786
-1.51598
-0.982259
1.24792
2.07191
0.981517
0.0440358
-0.252705
-0.316442
-0.133099
-0.158796
-0.327468
-0.0825274
0.560021
0.948858
0.703713
-0.00482153
-0.575307
-0.555358
-0.39551
-0.0555356
0.362352
0.301308
0.0210992
-0.0742889
0.0113688
0.0160488
-0.0312059
-0.00859822
-0.0576994
-0.0726045
0.0160811
-0.0162049
-0.0994868
0.00209323
0.0264639
-0.0580822
-0.0561799
0.15963
-0.571486
1.9612
6.15975
3.44864
-1.35652
-2.51382
-0.886426
0.309857
0.0222917
-0.110058
-0.048622
0.142375
0.00583413
-0.141322
0.0321099
0.133311
-0.0659456
-0.11909
0.0861735
0.0894583
-0.106362
-0.0824271
0.100456
0.0557663
-0.113478
-0.0583924
0.105417
0.0346202
-0.120352
-0.0212242
0.126716
0.028585
-0.0751917
0.0391734
0.0930865
-0.107223
-0.129729
0.180506
0.170072
-0.1573
-0.0750707
0.20162
-0.00487087
-0.431392
-0.223197
0.184142
0.282361
0.177161
0.137146
0.253607
0.0175122
-0.244965
-0.307596
-0.538807
-0.5359
0.141984
0.576299
0.34911
-0.0434929
-0.477189
-1.25168
-1.56833
0.245281
2.97522
2.80121
0.611561
-0.723073
-0.934414
-0.84655
-0.664988
-0.198871
0.176704
-0.145782
-0.962493
-1.30566
-0.071162
1.16081
0.67222
0.196145
-0.274016
-0.305004
0.537619
0.40134
-0.188276
-0.0631165
0.00436426
-0.0485118
0.0889271
0.0394655
-0.0951753
-0.00794053
-0.00808797
-0.132559
-0.0155758
0.0561768
-0.0867941
-0.0735844
0.0845865
-0.0452669
0.0410247
-0.545008
2.18828
6.60176
3.70898
-1.39687
-2.51011
-0.742236
0.298944
-0.128535
-0.0403827
0.0810828
0.0292741
-0.0884493
0.0037324
0.0839351
-0.0247334
-0.0711103
0.0374366
0.0499036
-0.0543959
-0.045546
0.042056
0.0317849
-0.0550487
-0.0451597
0.0417781
0.0362953
-0.0526077
-0.0507896
0.0430616
0.0380976
-0.0327073
0.0101938
0.107809
0.0522491
-0.134962
-0.0906306
0.0727339
-0.011517
0.00912276
0.263328
0.26689
-0.0815019
-0.316326
-0.0818966
-0.182122
-0.896077
-0.485292
0.44848
0.607638
0.464378
0.300737
0.124332
-0.122904
-0.368088
-0.385142
-0.35011
-0.356575
-0.313855
-0.65416
-0.878686
0.829661
2.9773
1.81795
-0.175205
-0.494188
-0.0992741
0.0773904
0.180856
0.123964
-0.0713918
0.0749989
0.753419
1.34228
1.26018
0.498076
-0.95906
-1.21486
-1.11027
-0.79469
0.753338
1.03398
0.0758061
-0.277152
-0.0193732
0.13916
-0.00154596
-0.0712822
-0.0540886
-0.102888
-0.0438677
0.0169623
-0.0867211
-0.0624539
0.0359255
-0.0136459
-0.0642587
0.0194835
-0.0293884
0.11744
-0.629112
2.33547
7.13072
3.98393
-1.42177
-2.40277
-0.714501
0.0803724
-0.110725
0.178322
0.00593448
-0.16471
0.0371305
0.159945
-0.0766906
-0.13641
0.111439
0.107183
-0.136194
-0.082977
0.138277
0.0424899
-0.154866
-0.0443905
0.147947
0.0245259
-0.166931
-0.0224784
0.157075
-0.0122819
-0.175015
0.0220522
0.178311
0.00488071
-0.0776785
0.0873569
0.0704971
-0.168242
0.000160602
0.363141
-0.0276204
-0.517272
-0.119238
0.440252
0.0788581
-0.417133
0.0641314
0.0744793
0.00935635
0.570164
1.35083
1.37319
-0.0459587
-1.31246
-1.27507
-0.600172
-0.325695
-0.76889
-1.37366
-1.00634
1.54455
2.90776
0.129101
-2.21122
-2.52839
-1.92452
-0.851584
-0.354382
-0.268423
-0.343788
-0.49002
-1.03361
-1.73727
-0.848306
1.35869
1.48148
1.29398
-0.00689834
-1.54509
0.795006
1.62327
-0.437463
-0.663996
-0.0518389
-0.00324757
0.125277
0.136256
-0.0734953
-0.0482609
0.00858988
-0.15126
-0.100454
0.0766745
-0.0351974
-0.137726
0.0497619
0.0511635
-0.0932507
-0.0517754
0.24861
-0.741105
2.42016
7.70439
4.30415
-1.43019
-2.57864
-0.921015
0.215151
0.0411835
-0.00837073
-0.0995398
0.0627798
0.0844196
-0.0867975
-0.0514782
0.108428
0.0186865
-0.117602
0.00957131
0.108086
-0.0453819
-0.109286
0.0541946
0.083949
-0.076291
-0.0962758
0.060011
0.0850079
-0.0679475
-0.0830427
0.0561566
0.0345181
-0.0731984
0.00230395
0.141816
0.102797
-0.0547408
-0.136511
0.00566558
0.0182759
-0.144532
0.15194
0.542262
0.226001
-0.257171
-0.297498
0.248347
0.17959
-1.17496
-1.11484
0.335706
0.688904
-0.574843
-1.27864
-0.260758
1.58975
2.21043
1.60751
1.21159
2.43943
1.90475
-0.838101
-0.472437
1.25046
1.85723
1.58506
0.583086
0.182409
0.254312
0.483665
1.03393
1.96321
1.23009
0.128475
-1.37936
-1.78699
-2.13188
-3.04312
0.851043
3.16996
0.37595
-0.910693
-0.143717
0.413373
0.235943
-0.155434
-0.148777
-0.123775
-0.121331
-0.00404824
-0.0370321
-0.108327
-0.00762751
0.0399105
-0.0540835
-0.027226
0.0179099
0.00187211
-0.0518204
0.179077
-0.742581
2.7041
8.29598
4.6183
-1.44779
-2.6821
-0.866426
0.386214
-0.0558852