# vtk DataFile Version 3.0
fluid_state
ASCII
DATASET RECTILINEAR_GRID
DIMENSIONS 100 100 1
X_COORDINATES 100 double
0 1 2 3 4 5 6 7 8 9 10 11 12 13 14 15 16 17 18 19 20 21 22 23 24 25 26 27 28 29 30 31 32 33 34 35 36 37 38 39 40 41 42 43 44 45 46 47 48 49 50 51 52 53 54 55 56 57 58 59 60 61 62 63 64 65 66 67 68 69 70 71 72 73 74 75 76 77 78 79 80 81 82 83 84 85 86 87 88 89 90 91 92 93 94 95 96 97 98 99 
Y_COORDINATES 100 double
0 1 2 3 4 5 6 7 8 9 10 11 12 13 14 15 16 17 18 19 20 21 22 23 24 25 26 27 28 29 30 31 32 33 34 35 36 37 38 39 40 41 42 43 44 45 46 47 48 49 50 51 52 53 54 55 56 57 58 59 60 61 62 63 64 65 66 67 68 69 70 71 72 73 74 75 76 77 78 79 80 81 82 83 84 85 86 87 88 89 90 91 92 93 94 95 96 97 98 99 
Z_COORDINATES 1 double
0
POINT_DATA 10000
SCALARS vorticity float 1
LOOKUP_TABLE default
0
0
0
0
0
0
0
0
0
0
0
0
0
0
0
0
0
0
0
0
0
0
0
0
0
0
0
0
0
0
0
0
0
0
0
0
0
0
0
0
0
0
0
0
0
0
0
0
0
0
0
0
0
0
0
0
0
0
0
0
0
0
0
0
0
0
0
0
0
0
0
0
0
0
0
0
0
0
0
0
0
0
0
0
0
0
0
0
0
0
0
0
0
0
0
0
0
0
0
0
0
0
0
0
0
0
0
0
0
0
0
0
0
0
0
0
0
0
0
0
0
0
0
0
0
0
0
0
0
0
0
0
0
0
0
0
0
0
0
0
0
0
0
0
0
0
0
0
0
0
0
0
0
0
0
0
0
0
0
0
0
0
0
0
0
0
0
0
0
0
0
0
0
0
0
0
0
0
0
0
0
0
0
0
0
0
0
0
0
0
0
0
0
0
0
0
0
0
0
0
0
0
0
0
0
0
0
0
0
0
0
0
0
0
0
0
0
0
0
0
0
0
0
0
0
0
0
0
0
0
0
0
0
0
0
0
0
0
0
0
0
0
0
0
0
0
0
0
0
0
0
0
0
0
0
0
0
0
0
0
0
0
0
0
0
0
0
0
0
0
0
0
0
0
0
0
0
0
0
0
0
0
0
0
0
0
0
0
0
0
0
0
0
0
0
0
0
0
0
0
0
0
0
0
0
0
0
0
0
0
0
0
0
0
0
0
0
0
0
0
0
0
0
0
0
0
0
0
0
0
0
0
0
0
0
0
0
0
0
0
0
0
0
0
0
0
0
0
0
0
0
0
0
0
0
0
0
0
0
0
0
0
0
0
0
0
0
0
0
0
0
0
0
0
0
0
0
0
0
0
0
0
0
0
0
0
0
0
0
0
0
0
0
0
0
0
0
0
0
0
0
0
0
0
0
0
0
0
0
0
0
0
0
0
0
0
0
0
0
0
0
0
0
0
0
0
0
0
0
0
0
0
0
0
0
0
0
0
0
0
0
0
0
0
0
0
0
0
0
0
0
0
0
0
0
0
0
0
0
0
0
0
0
0
0
0
0
0
0
0
0
0
0
0
0
0
0
0
0
0
0
0
0
0
0
0
0
0
0
0
0
0
0
0
0
0
0
0
0
0
0
0
0
0
0
0
0
0
0
0
0
0
0
0
0
0
0
0
0
0
0
0
0
0
0
0
0
0
0
0
0
0
0
0
0
0
0
0
0
0
0
0
0
0
0
0
0
0
0
0
0
0
0
0
0
0
0
0
0
0
0
0
0
0
0
0
0
0
0
0
0
0
0
0
0
0
0
0
0
0
0
0
0
0
0
0
0
0
0
0
0
0
0
0
0
0
0
0
0
0
0
0
0
0
0
0
0
0
0
0
0
0
0
0
0
0
0
0
0
0
0
0
0
0
0
0
0
0
0
0
0
0
0
0
0
0
0
0
0
0
0
0
0
0
0
0
0
0
0
0
0
0
0
0
0
0
0
0
0
0
0
0
0
0
0
0
0
0
0
0
0
0
0
0
0
0
0
0
0
0
0
0
0
0
0
0
0
0
0
0
0
0
0
0
0
0
0
0
0
0
0
0
0
0
0
0
0
0
0
0
0
0
0
0
0
0
0
0
0
0
0
0
0
0
0
0
0
0
0
0
0
0
0
0
0
0
0
0
0
0
0
0
0
0
0
0
0
0
0
0
0
0
0
0
0
0
0
0
0
0
0
0
0
0
0
0
0
0
0
0
0
0
0
0
0
0
0
0
0
0
0
0
0
0
0
0
0
0
0
0
0
0
0
0
0
0
0
0
0
0
0
0
0
0
0
0
0
0
0
0
0
0
0
0
0
0
0
0
0
0
0
0
0
0
0
0
0
0
0
0
0
0
0
0
0
0
0
0
0
0
0
0
0
0
0
0
0
0
0
0
0
0
0
0
0
0
0
0
0
0
0
0
0
0
0
0
0
0
0
0
0
0
0
0
0
0
0
0
0
0
0
0
0
0
0
0
0
0
0
0
0
0
0
0
0
0
0
0
0
0
0
0
0
0
0
0
0
0
0
0
0
0
0
0
0
0
0
0
0
0
0
0
0
0
0
0
0
0
0
0
0
0
0
0
0
0
0
0
0
0
0
0
0
0
0
0
0
0
0
0
0
0
0
0
0
0
0
0
0
0
0
0
0
0
0
0
0
0
0
0
0
0
0
0
0
0
0
0
0
0
0
0
0
0
0
0
0
0
0
0
0
0
0
0
0
0
0
0
0
0
0
0
0
0
0
0
0
0
0
0
0
0
0
0
0
0
0
0
0
0
0
0
0
0
0
0
0
0
0
0
0
0
0
0
0
0
0
0
0
0
0
0
0
0
0
0
0
0
0
0
0
0
0
0
0
0
0
0
0
0
0
0
0
0
0
0
0
0
0
0
0
0
0
0
0
0
0
0
0
0
0
0
0
0
0
0
0
0
0
0
0
0
0
0
0
0
0
0
0
0
0
0
0
0
0
0
0
0
0
0
0
0
0
0
0
0
0
0
0
0
0
0
0
0
0
0
0
0
0
0
0
0
0
0
0
0
0
0
0
0
0
0
0
0
0
0
0
0
0
0
0
0
0
0
0
0
0
0
0
0
0
0
0
0
0
0
0
0
0
0
0
0
0
0
0
0
0
0
0
0
0
0
0
0
0
0
0
0
0
0
0
0
0
0
0
0
0
0
0
0
0
0
0
0
0
0
0
0
0
0
0
0
0
0
0
0
0
0
0
0
0
0
0
0
0
0
0
0
0
0
0
0
0
0
0
0
0
0
0
0
0
0
0
0
0
0
0
0
0
0
0
0
0
0
0
0
0
0
0
0
0
0
0
0
0
0
0
0
0
0
0
0
0
0
0
0
0
0
0
0
0
0
0
0
0
0
0
0
0
0
0
0
0
0
0
0
0
0
0
0
0
0
0
0
0
0
0
0
0
0
0
0
0
0
0
0
0
0
0
0
0
0
0
0
0
0
0
0
0
0
0
0
0
0
0
0
0
0
0
0
0
0
0
0
0
0
0
0
0
0
0
0
0
0
0
0
0
0
0
0
0
0
0
0
0
0
0
0
0
0
0
0
0
0
0
0
0
0
0
0
0
0
0
0
0
0
0
0
0
0
0
0
0
0
0
0
0
0
0
0
0
0
0
0
0
0
0
0
0
0
0
0
0
0
0
0
0
0
0
0
0
0
0
0
0
0
0
0
0
0
0
0
0
0
0
0
0
0
0
0
0
0
0
0
0
0
0
0
0
0
0
0
0
0
0
0
0
0
0
0
0
0
0
0
0
0
0
0
0
0
0
0
0
0
0
0
0
0
0
0
0
0
0
0
0
0
0
0
0
0
0
0
0
0
0
0
0
0
0
0
0
0
0
0
0
0
0
0
0
0
0
0
0
0
0
0
0
0
0
0
0
0
0
0
0
0
0
0
0
0
0
0
0
0
0
0
0
0
0
0
0
0
0
7.77734e-13
1.30249e-12
2.04264e-12
2.83049e-12
3.69496e-12
4.49293e-12
5.0307e-12
5.2114e-12
5.02058e-12
4.50016e-12
3.70363e-12
2.82904e-12
2.03685e-12
1.3155e-12
7.89299e-13
0
0
0
0
0
0
0
0
0
0
0
0
0
0
0
0
0
0
0
0
0
0
0
0
0
0
0
0
0
0
0
0
0
0
0
0
0
0
0
0
0
0
0
0
0
0
0
0
0
0
0
0
0
0
0
0
0
0
0
0
0
0
0
0
0
0
0
0
0
0
0
0
0
0
0
0
0
0
0
0
0
5.20417e-13
1.10589e-12
2.32742e-12
4.3874e-12
7.62266e-12
1.24351e-11
1.88738e-11
2.64834e-11
3.44415e-11
4.16146e-11
4.6625e-11
4.83655e-11
4.66178e-11
4.16261e-11
3.44545e-11
2.64791e-11
1.88723e-11
1.24437e-11
7.62556e-12
4.3903e-12
2.32019e-12
1.10444e-12
5.18971e-13
0
0
0
0
0
0
0
0
0
0
0
0
0
0
0
0
0
0
0
0
0
0
0
0
0
0
0
0
0
0
0
0
0
0
0
0
0
0
0
0
0
0
0
0
0
0
0
0
0
0
0
0
0
0
0
0
0
0
0
0
0
0
0
0
0
0
0
0
0
0
0
0
0
0
0
6.96781e-13
1.85615e-12
4.4698e-12
9.63639e-12
1.98582e-11
3.78083e-11
6.65122e-11
1.0843e-10
1.63957e-10
2.30036e-10
2.99353e-10
3.61175e-10
4.04224e-10
4.197e-10
4.04225e-10
3.61171e-10
2.99355e-10
2.3004e-10
1.63959e-10
1.08432e-10
6.65122e-11
3.78097e-11
1.98554e-11
9.62916e-12
4.46402e-12
1.86916e-12
6.99672e-13
0
0
0
0
0
0
0
0
0
0
0
0
0
0
0
0
0
0
0
0
0
0
0
0
0
0
0
0
0
0
0
0
0
0
0
0
0
0
0
0
0
0
0
0
0
0
0
0
0
0
0
0
0
0
0
0
0
0
0
0
0
0
0
0
0
0
0
0
0
0
0
6.85216e-13
2.09034e-12
5.83301e-12
1.49461e-11
3.55734e-11
7.84572e-11
1.60393e-10
3.04005e-10
5.3401e-10
8.69965e-10
1.31457e-09
1.84235e-09
2.39526e-09
2.88886e-09
3.23243e-09
3.35587e-09
3.23245e-09
2.88885e-09
2.39526e-09
1.84236e-09
1.31458e-09
8.69962e-10
5.3401e-10
3.04005e-10
1.60387e-10
7.84529e-11
3.5572e-11
1.49591e-11
5.82289e-12
2.08745e-12
6.95335e-13
0
0
0
0
0
0
0
0
0
0
0
0
0
0
0
0
0
0
0
0
0
0
0
0
0
0
0
0
0
0
0
0
0
0
0
0
0
0
0
0
0
0
0
0
0
0
0
0
0
0
0
0
0
0
0
0
0
0
0
0
0
0
0
0
0
0
0
0
1.63498e-12
5.27067e-12
1.57311e-11
4.35517e-11
1.11525e-10
2.64853e-10
5.83382e-10
1.19075e-09
2.25312e-09
3.95312e-09
6.43245e-09
9.70861e-09
1.35937e-08
1.76594e-08
2.12871e-08
2.38115e-08
2.47178e-08
2.38115e-08
2.12871e-08
1.76594e-08
1.35937e-08
9.70861e-09
6.43244e-09
3.95312e-09
2.25313e-09
1.19074e-09
5.8339e-10
2.64853e-10
1.11524e-10
4.35459e-11
1.57253e-11
5.27067e-12
1.6451e-12
0
0
0
0
0
0
0
0
0
0
0
0
0
0
0
0
0
0
0
0
0
0
0
0
0
0
0
0
0
0
0
0
0
0
0
0
0
0
0
0
0
0
0
0
0
0
0
0
0
0
0
0
0
0
0
0
0
0
0
0
0
0
0
0
0
9.13621e-13
3.189e-12
1.11991e-11
3.63612e-11
1.08456e-10
2.99753e-10
7.67288e-10
1.81988e-09
4.00034e-09
8.15048e-09
1.53963e-08
2.6971e-08
4.38241e-08
6.60611e-08
9.23992e-08
1.19934e-07
1.44482e-07
1.61556e-07
1.67684e-07
1.61556e-07
1.44482e-07
1.19934e-07
9.23992e-08
6.60611e-08
4.3824e-08
2.6971e-08
1.53963e-08
8.15048e-09
4.00033e-09
1.81988e-09
7.67293e-10
2.99743e-10
1.08452e-10
3.63714e-11
1.1202e-11
3.19767e-12
9.07839e-13
0
0
0
0
0
0
0
0
0
0
0
0
0
0
0
0
0
0
0
0
0
0
0
0
0
0
0
0
0
0
0
0
0
0
0
0
0
0
0
0
0
0
0
0
0
0
0
0
0
0
0
0
0
0
0
0
0
0
0
0
0
0
1.37188e-12
5.52509e-12
2.07328e-11
7.21891e-11
2.32238e-10
6.91584e-10
1.90733e-09
4.87225e-09
1.15315e-08
2.52938e-08
5.1431e-08
9.69688e-08
1.69568e-07
2.75082e-07
4.14076e-07
5.78472e-07
7.50135e-07
9.03044e-07
1.00933e-06
1.04746e-06
1.00933e-06
9.03044e-07
7.50135e-07
5.78472e-07
4.14076e-07
2.75082e-07
1.69568e-07
9.69688e-08
5.1431e-08
2.52938e-08
1.15315e-08
4.87225e-09
1.90734e-09
6.91572e-10
2.32242e-10
7.21891e-11
2.07401e-11
5.53088e-12
1.3632e-12
0
0
0
0
0
0
0
0
0
0
0
0
0
0
0
0
0
0
0
0
0
0
0
0
0
0
0
0
0
0
0
0
0
0
0
0
0
0
0
0
0
0
0
0
0
0
0
0
0
0
0
0
0
0
0
0
0
0
0
0
1.84748e-12
8.09393e-12
3.29034e-11
1.23089e-10
4.26876e-10
1.36999e-09
4.07031e-09
1.11983e-08
2.85376e-08
6.73819e-08
1.47455e-07
2.99152e-07
5.6282e-07
9.8223e-07
1.59053e-06
2.39034e-06
3.33479e-06
4.31967e-06
5.19605e-06
5.80479e-06
6.02311e-06
5.80479e-06
5.19605e-06
4.31967e-06
3.33479e-06
2.39034e-06
1.59053e-06
9.8223e-07
5.6282e-07
2.99152e-07
1.47455e-07
6.73819e-08
2.85376e-08
1.11983e-08
4.07031e-09
1.36999e-09
4.26875e-10
1.2309e-10
3.29106e-11
8.08959e-12
1.84603e-12
0
0
0
0
0
0
0
0
0
0
0
0
0
0
0
0
0
0
0
0
0
0
0
0
0
0
0
0
0
0
0
0
0
0
0
0
0
0
0
0
0
0
0
0
0
0
0
0
0
0
0
0
0
0
0
0
0
0
2.18141e-12
1.01583e-11
4.45665e-11
1.80259e-10
6.73696e-10
2.33037e-09
7.46009e-09
2.21073e-08
6.06627e-08
1.54183e-07
3.63092e-07
7.92506e-07
1.60375e-06
3.00999e-06
5.24113e-06
8.46939e-06
1.2705e-05
1.76971e-05
2.28948e-05
2.75144e-05
3.07206e-05
3.18699e-05
3.07206e-05
2.75144e-05
2.28948e-05
1.76971e-05
1.2705e-05
8.46939e-06
5.24113e-06
3.00999e-06
1.60375e-06
7.92506e-07
3.63092e-07
1.54183e-07
6.06627e-08
2.21073e-08
7.4601e-09
2.33036e-09
6.73696e-10
1.80264e-10
4.45766e-11
1.01496e-11
2.17563e-12
0
0
0
0
0
0
0
0
0
0
0
0
0
0
0
0
0
0
0
0
0
0
0
0
0
0
0
0
0
0
0
0
0
0
0
0
0
0
0
0
0
0
0
0
0
0
0
0
0
0
0
0
0
0
0
0
2.17563e-12
1.1043e-11
5.19752e-11
2.26444e-10
9.13106e-10
3.4051e-09
1.17474e-08
3.7503e-08
1.10822e-07
3.03216e-07
7.68407e-07
1.80423e-06
3.92655e-06
7.92333e-06
1.48301e-05
2.57564e-05
4.15224e-05
6.21565e-05
8.64234e-05
0.000111644
0.000134028
0.000149548
0.000155109
0.000149548
0.000134028
0.000111644
8.64234e-05
6.21565e-05
4.15224e-05
2.57564e-05
1.48301e-05
7.92333e-06
3.92655e-06
1.80423e-06
7.68407e-07
3.03216e-07
1.10822e-07
3.7503e-08
1.17474e-08
3.4051e-09
9.13122e-10
2.26446e-10
5.19593e-11
1.10357e-11
2.18141e-12
0
0
0
0
0
0
0
0
0
0
0
0
0
0
0
0
0
0
0
0
0
0
0
0
0
0
0
0
0
0
0
0
0
0
0
0
0
0
0
0
0
0
0
0
0
0
0
0
0
0
0
0
0
0
1.84893e-12
1.0164e-11
5.19694e-11
2.4436e-10
1.06295e-09
4.27485e-09
1.58979e-08
5.46888e-08
1.74067e-07
5.1277e-07
1.39849e-06
3.53251e-06
8.26715e-06
1.79329e-05
3.60701e-05
6.73026e-05
0.000116544
0.000187371
0.0002798
0.000388224
0.000500668
0.000600298
0.0006693
0.000694011
0.0006693
0.000600298
0.000500668
0.000388224
0.0002798
0.000187371
0.000116544
6.73026e-05
3.60701e-05
1.79329e-05
8.26715e-06
3.53251e-06
1.39849e-06
5.1277e-07
1.74067e-07
5.46888e-08
1.58979e-08
4.27487e-09
1.06295e-09
2.44346e-10
5.19709e-11
1.01583e-11
1.84748e-12
0
0
0
0
0
0
0
0
0
0
0
0
0
0
0
0
0
0
0
0
0
0
0
0
0
0
0
0
0
0
0
0
0
0
0
0
0
0
0
0
0
0
0
0
0
0
0
0
0
0
0
0
1.3632e-12
8.09682e-12
4.45795e-11
2.26441e-10
1.06295e-09
4.61132e-09
1.84933e-08
6.85723e-08
2.35154e-07
7.46014e-07
2.19014e-06
5.95218e-06
1.49805e-05
3.49301e-05
7.54899e-05
0.000151286
0.000281278
0.000485422
0.00077797
0.00115844
0.00160341
0.00206371
0.00247074
0.00275227
0.00285301
0.00275227
0.00247074
0.00206371
0.00160341
0.00115844
0.00077797
0.000485422
0.000281278
0.000151286
7.54899e-05
3.49301e-05
1.49805e-05
5.95218e-06
2.19014e-06
7.46014e-07
2.35154e-07
6.85724e-08
1.84933e-08
4.61132e-09
1.06294e-09
2.26452e-10
4.45723e-11
8.08381e-12
1.37188e-12
0
0
0
0
0
0
0
0
0
0
0
0
0
0
0
0
0
0
0
0
0
0
0
0
0
0
0
0
0
0
0
0
0
0
0
0
0
0
0
0
0
0
0
0
0
0
0
0
0
0
9.00611e-13
5.51353e-12
3.29077e-11
1.80271e-10
9.13115e-10
4.27485e-09
1.84933e-08
7.39419e-08
2.73301e-07
9.34066e-07
2.95274e-06
8.63626e-06
2.33796e-05
5.86053e-05
0.000136088
0.000292883
0.000584513
0.00108233
0.00186054
0.00297089
0.00440912
0.00608512
0.00781357
0.00933836
0.0103912
0.0107677
0.0103912
0.00933836
0.00781357
0.00608512
0.00440912
0.00297089
0.00186054
0.00108233
0.000584513
0.000292883
0.000136088
5.86053e-05
2.33796e-05
8.63626e-06
2.95274e-06
9.34066e-07
2.73301e-07
7.39419e-08
1.84933e-08
4.27485e-09
9.13117e-10
1.8027e-10
3.28976e-11
5.5222e-12
9.09284e-13
0
0
0
0
0
0
0
0
0
0
0
0
0
0
0
0
0
0
0
0
0
0
0
0
0
0
0
0
0
0
0
0
0
0
0
0
0
0
0
0
0
0
0
0
0
0
0
0
0
3.18322e-12
2.07328e-11
1.23099e-10
6.73699e-10
3.40511e-09
1.58979e-08
6.85723e-08
2.73301e-07
1.00672e-06
3.42819e-06
1.07952e-05
3.14452e-05
8.47612e-05
0.000211518
0.000488898
0.00104723
0.00208005
0.00383349
0.00655982
0.0104297
0.015418
0.0212057
0.0271525
0.0323832
0.0359876
0.0372751
0.0359876
0.0323832
0.0271525
0.0212057
0.015418
0.0104297
0.00655982
0.00383349
0.00208005
0.00104723
0.000488898
0.000211518
8.47612e-05
3.14452e-05
1.07952e-05
3.42819e-06
1.00672e-06
2.73301e-07
6.85723e-08
1.58979e-08
3.4051e-09
6.73699e-10
1.23092e-10
2.07401e-11
3.19478e-12
0
0
0
0
0
0
0
0
0
0
0
0
0
0
0
0
0
0
0
0
0
0
0
0
0
0
0
0
0
0
0
0
0
0
0
0
0
0
0
0
0
0
0
0
0
0
0
0
1.6422e-12
1.1202e-11
7.21992e-11
4.26891e-10
2.33036e-09
1.17474e-08
5.46888e-08
2.35153e-07
9.34066e-07
3.42819e-06
1.16284e-05
3.64639e-05
0.000105741
0.000283677
0.000704382
0.00161964
0.00345073
0.00681669
0.0124947
0.0212669
0.0336413
0.0494988
0.0677998
0.0865173
0.102921
0.114196
0.118218
0.114196
0.102921
0.0865173
0.0677998
0.0494988
0.0336413
0.0212669
0.0124947
0.00681669
0.00345073
0.00161964
0.000704382
0.000283677
0.000105741
3.64639e-05
1.16284e-05
3.42819e-06
9.34066e-07
2.35153e-07
5.46888e-08
1.17474e-08
2.33036e-09
4.26892e-10
7.22021e-11
1.11962e-11
1.64076e-12
0
0
0
0
0
0
0
0
0
0
0
0
0
0
0
0
0
0
0
0
0
0
0
0
0
0
0
0
0
0
0
0
0
0
0
0
0
0
0
0
0
0
0
0
0
0
6.82325e-13
5.26199e-12
3.63728e-11
2.32243e-10
1.36999e-09
7.46009e-09
3.7503e-08
1.74067e-07
7.46014e-07
2.95274e-06
1.07952e-05
3.64639e-05
0.000113825
0.000328471
0.00087662
0.00216463
0.00494825
0.0104784
0.0205699
0.0374649
0.0633687
0.0996348
0.145775
0.198672
0.252462
0.299384
0.331531
0.34298
0.331531
0.299384
0.252462
0.198672
0.145775
0.0996348
0.0633687
0.0374649
0.0205699
0.0104784
0.00494825
0.00216463
0.00087662
0.000328471
0.000113825
3.64639e-05
1.07952e-05
2.95274e-06
7.46014e-07
1.74067e-07
3.7503e-08
7.46009e-09
1.37e-09
2.32251e-10
3.63598e-11
5.26199e-12
6.89553e-13
0
0
0
0
0
0
0
0
0
0
0
0
0
0
0
0
0
0
0
0
0
0
0
0
0
0
0
0
0
0
0
0
0
0
0
0
0
0
0
0
0
0
0
0
0
2.08745e-12
1.57209e-11
1.08452e-10
6.91576e-10
4.07029e-09
2.21072e-08
1.10821e-07
5.12769e-07
2.19014e-06
8.63626e-06
3.14452e-05
0.000105741
0.000328471
0.000942874
0.00250194
0.00614003
0.0139438
0.0293229
0.0571476
0.103316
0.173451
0.270739
0.393404
0.532853
0.673604
0.795645
0.878902
0.908487
0.878902
0.795645
0.673604
0.532853
0.393404
0.270739
0.173451
0.103316
0.0571476
0.0293229
0.0139438
0.00614003
0.00250194
0.000942874
0.000328471
0.000105741
3.14452e-05
8.63626e-06
2.19014e-06
5.12769e-07
1.10821e-07
2.21072e-08
4.0703e-09
6.91585e-10
1.08451e-10
1.57209e-11
2.09034e-12
0
0
0
0
0
0
0
0
0
0
0
0
0
0
0
0
0
0
0
0
0
0
0
0
0
0
0
0
0
0
0
0
0
0
0
0
0
0
0
0
0
0
0
0
6.98226e-13
5.83879e-12
4.35531e-11
2.9974e-10
1.90733e-09
1.11983e-08
6.06627e-08
3.03216e-07
1.39849e-06
5.95217e-06
2.33796e-05
8.47611e-05
0.000283677
0.000876619
0.00250194
0.00659742
0.0160805
0.0362495
0.0756291
0.146164
0.26195
0.435875
0.674362
0.971627
1.30589
1.63998
1.92731
2.1222
2.19124
2.1222
1.92731
1.63998
1.30589
0.971627
0.674362
0.435875
0.26195
0.146164
0.0756291
0.0362495
0.0160805
0.00659742
0.00250194
0.000876619
0.000283677
8.47611e-05
2.33796e-05
5.95217e-06
1.39849e-06
3.03216e-07
6.06627e-08
1.11983e-08
1.90734e-09
2.99744e-10
4.3556e-11
5.84313e-12
7.04009e-13
0
0
0
0
0
0
0
0
0
0
0
0
0
0
0
0
0
0
0
0
0
0
0
0
0
0
0
0
0
0
0
0
0
0
0
0
0
0
0
0
0
0
0
1.86049e-12
1.49432e-11
1.11521e-10
7.67299e-10
4.87225e-09
2.85374e-08
1.54183e-07
7.68405e-07
3.5325e-06
1.49804e-05
5.86051e-05
0.000211518
0.000704379
0.00216462
0.00614001
0.0160805
0.0389
0.0869672
0.179815
0.344161
0.610467
1.00496
1.53802
2.19261
2.91799
3.63328
4.24152
4.65067
4.79498
4.65067
4.24152
3.63328
2.91799
2.19261
1.53802
1.00496
0.610467
0.344161
0.179815
0.0869672
0.0389
0.0160805
0.00614001
0.00216462
0.000704379
0.000211518
5.86051e-05
1.49804e-05
3.5325e-06
7.68405e-07
1.54183e-07
2.85374e-08
4.87224e-09
7.67294e-10
1.11531e-10
1.49389e-11
1.86483e-12
0
0
0
0
0
0
0
0
0
0
0
0
0
0
0
0
0
0
0
0
0
0
0
0
0
0
0
0
0
0
0
0
0
0
0
0
0
0
0
0
0
0
5.27645e-13
4.45824e-12
3.55662e-11
2.64862e-10
1.81987e-09
1.15314e-08
6.73815e-08
3.6309e-07
1.80422e-06
8.2671e-06
3.49298e-05
0.000136087
0.000488895
0.00161963
0.00494822
0.0139437
0.0362493
0.0869668
0.19264
0.394245
0.746119
1.30738
2.12441
3.20769
4.51153
5.92734
7.29672
8.44175
9.20238
9.46886
9.20238
8.44175
7.29672
5.92734
4.51153
3.20769
2.12441
1.30738
0.746119
0.394245
0.19264
0.0869668
0.0362493
0.0139437
0.00494822
0.00161963
0.000488895
0.000136087
3.49298e-05
8.2671e-06
1.80422e-06
3.6309e-07
6.73815e-08
1.15314e-08
1.81987e-09
2.64856e-10
3.55647e-11
4.4727e-12
5.23308e-13
0
0
0
0
0
0
0
0
0
0
0
0
0
0
0
0
0
0
0
0
0
0
0
0
0
0
0
0
0
0
0
0
0
0
0
0
0
0
0
0
0
1.10155e-12
9.63639e-12
7.84615e-11
5.83382e-10
4.0003e-09
2.52934e-08
1.47453e-07
7.92496e-07
3.9265e-06
1.79327e-05
7.54888e-05
0.000292879
0.00104721
0.00345067
0.0104782
0.0293224
0.0756279
0.179813
0.39424
0.797517
1.48975
2.57275
4.11461
6.10802
8.44138
10.9011
13.2106
15.0902
16.3129
16.7364
16.3129
15.0902
13.2106
10.9011
8.44138
6.10802
4.11461
2.57275
1.48975
0.797517
0.39424
0.179813
0.0756279
0.0293224
0.0104782
0.00345067
0.00104721
0.000292879
7.54888e-05
1.79327e-05
3.9265e-06
7.92496e-07
1.47453e-07
2.52935e-08
4.00031e-09
5.8337e-10
7.84601e-11
9.65229e-12
1.1001e-12
0
0
0
0
0
0
0
0
0
0
0
0
0
0
0
0
0
0
0
0
0
0
0
0
0
0
0
0
0
0
0
0
0
0
0
0
0
0
0
0
0
2.31875e-12
1.98684e-11
1.60404e-10
1.19072e-09
8.15033e-09
5.14296e-08
2.99144e-07
1.60371e-06
7.9231e-06
3.60691e-05
0.000151281
0.000584495
0.00207999
0.00681646
0.0205691
0.0571455
0.146159
0.344147
0.746092
1.48971
2.7411
4.65267
7.29682
10.5993
14.3108
18.0454
21.3796
23.9617
25.5735
26.1186
25.5735
23.9617
21.3796
18.0454
14.3108
10.5993
7.29682
4.65267
2.7411
1.48971
0.746092
0.344147
0.146159
0.0571455
0.0205691
0.00681646
0.00207999
0.000584495
0.000151281
3.60691e-05
7.9231e-06
1.60371e-06
2.99144e-07
5.14296e-08
8.15033e-09
1.19072e-09
1.60398e-10
1.9877e-11
2.32019e-12
0
0
0
0
0
0
0
0
0
0
0
0
0
0
0
0
0
0
0
0
0
0
0
0
0
0
0
0
0
0
0
0
0
0
0
0
0
0
0
0
0
4.38885e-12
3.78025e-11
3.0396e-10
2.25302e-09
1.53954e-08
9.69633e-08
5.62787e-07
3.00981e-06
1.48292e-05
6.72984e-05
0.00028126
0.00108225
0.00383321
0.0124937
0.037462
0.103307
0.261927
0.610411
1.30726
2.57252
4.65237
7.73633
11.8427
16.7252
21.8737
26.6471
30.4954
33.1445
34.6182
35.0803
34.6182
33.1445
30.4954
26.6471
21.8737
16.7252
11.8427
7.73633
4.65237
2.57252
1.30726
0.610411
0.261927
0.103307
0.037462
0.0124937
0.00383321
0.00108225
0.00028126
6.72984e-05
1.48292e-05
3.00981e-06
5.62787e-07
9.69633e-08
1.53954e-08
2.25302e-09
3.03958e-10
3.7804e-11
4.39463e-12
0
0
0
0
0
0
0
0
0
0
0
0
0
0
0
0
0
0
0
0
0
0
0
0
0
0
0
0
0
0
0
0
0
0
0
0
0
0
0
0
7.83517e-13
7.61977e-12
6.65136e-11
5.33984e-10
3.95267e-09
2.69677e-08
1.69547e-07
9.82107e-07
5.24045e-06
2.5753e-05
0.000116528
0.000485354
0.00186027
0.00655882
0.0212635
0.0633579
0.17342
0.435791
1.00475
2.12395
4.11368
7.29523
11.8407
17.5896
23.9382
29.929
34.5819
37.3406
38.3582
38.3859
38.2725
38.3859
38.3582
37.3406
34.5819
29.929
23.9382
17.5896
11.8407
7.29523
4.11368
2.12395
1.00475
0.435791
0.17342
0.0633579
0.0212635
0.00655882
0.00186027
0.000485354
0.000116528
2.5753e-05
5.24045e-06
9.82107e-07
1.69547e-07
2.69677e-08
3.95268e-09
5.33984e-10
6.65136e-11
7.61977e-12
7.83517e-13
0
0
0
0
0
0
0
0
0
0
0
0
0
0
0
0
0
0
0
0
0
0
0
0
0
0
0
0
0
0
0
0
0
0
0
0
0
0
0
1.31405e-12
1.24394e-11
1.08423e-10
8.69813e-10
6.43088e-09
4.38128e-08
2.75009e-07
1.5901e-06
8.46706e-06
4.15107e-05
0.000187317
0.000777735
0.00296996
0.0104262
0.0336297
0.0995984
0.270634
0.67408
1.53733
3.20611
6.10476
10.5933
16.7157
23.9274
30.9937
36.2648
38.3592
36.9723
33.2868
29.5684
28.0245
29.5684
33.2868
36.9723
38.3592
36.2648
30.9937
23.9274
16.7157
10.5933
6.10476
3.20611
1.53733
0.67408
0.270634
0.0995984
0.0336297
0.0104262
0.00296996
0.000777735
0.000187317
4.15107e-05
8.46706e-06
1.5901e-06
2.75009e-07
4.38128e-08
6.43089e-09
8.69812e-10
1.08423e-10
1.24336e-11
1.30972e-12
0
0
0
0
0
0
0
0
0
0
0
0
0
0
0
0
0
0
0
0
0
0
0
0
0
0
0
0
0
0
0
0
0
0
0
0
0
0
0
2.03541e-12
1.88521e-11
1.63881e-10
1.31391e-09
9.70334e-09
6.60247e-08
4.13844e-07
2.38897e-06
1.26975e-05
6.2119e-05
0.000279626
0.00115769
0.00440617
0.0154072
0.0494624
0.145661
0.393075
0.970753
2.19046
4.50664
8.43118
14.2914
21.8406
29.881
36.2147
38.2304
34.126
24.239
11.5922
0.988615
-3.1445
0.988615
11.5922
24.239
34.126
38.2304
36.2147
29.881
21.8406
14.2914
8.43118
4.50664
2.19046
0.970753
0.393075
0.145661
0.0494624
0.0154072
0.00440617
0.00115769
0.000279626
6.2119e-05
1.26975e-05
2.38897e-06
4.13844e-07
6.60247e-08
9.70334e-09
1.3139e-09
1.63879e-10
1.88507e-11
2.04119e-12
0
0
0
0
0
0
0
0
0
0
0
0
0
0
0
0
0
0
0
0
0
0
0
0
0
0
0
0
0
0
0
0
0
0
0
0
0
0
0
2.82182e-12
2.64242e-11
2.29836e-10
1.84032e-09
1.35779e-08
9.22907e-08
5.7778e-07
3.33072e-06
1.7675e-05
8.63126e-05
0.000387711
0.00160122
0.00607648
0.0211743
0.067694
0.198344
0.53191
1.30339
2.91187
5.91349
10.8722
17.9899
26.5498
34.4297
38.1563
33.9312
19.5679
-3.51579
-29.6206
-50.3829
-58.3065
-50.3829
-29.6206
-3.51579
19.5679
33.9312
38.1563
34.4297
26.5498
17.9899
10.8722
5.91349
2.91187
1.30339
0.53191
0.198344
0.067694
0.0211743
0.00607648
0.00160122
0.000387711
8.63126e-05
1.7675e-05
3.33072e-06
5.7778e-07
9.22907e-08
1.35779e-08
1.84032e-09
2.29829e-10
2.64256e-11
2.82904e-12
0
0
0
0
0
0
0
0
0
0
0
0
0
0
0
0
0
0
0
0
0
0
0
0
0
0
0
0
0
0
0
0
0
0
0
0
0
0
0
3.69496e-12
3.43605e-11
2.98576e-10
2.38936e-09
1.76159e-08
1.19634e-07
7.48227e-07
4.30847e-06
2.28342e-05
0.000111341
0.000499269
0.00205776
0.00779019
0.0270677
0.0862337
0.251585
0.671103
1.63338
3.61722
7.26058
13.1355
21.2355
30.2413
36.9318
36.3844
23.5198
-4.14808
-43.7885
-86.4676
-119.613
-132.135
-119.613
-86.4676
-43.7885
-4.14808
23.5198
36.3844
36.9318
30.2413
21.2355
13.1355
7.26058
3.61722
1.63338
0.671103
0.251585
0.0862337
0.0270677
0.00779019
0.00205776
0.000499269
0.000111341
2.28342e-05
4.30847e-06
7.48227e-07
1.19634e-07
1.76159e-08
2.38935e-09
2.98569e-10
3.43663e-11
3.69641e-12
0
0
0
0
0
0
0
0
0
0
0
0
0
0
0
0
0
0
0
0
0
0
0
0
0
0
0
0
0
0
0
0
0
0
0
0
0
0
0
4.46258e-12
4.14122e-11
3.59297e-10
2.87388e-09
2.11756e-08
1.43715e-07
8.98172e-07
5.16751e-06
2.73602e-05
0.000133259
0.000596766
0.00245576
0.00927975
0.0321716
0.102217
0.297219
0.789506
1.91124
4.20265
8.35492
14.911
23.62
32.5434
37.3856
31.8517
9.69894
-31.743
-88.1735
-147.459
-192.926
-210.011
-192.926
-147.459
-88.1735
-31.743
9.69894
31.8517
37.3856
32.5434
23.62
14.911
8.35492
4.20265
1.91124
0.789506
0.297219
0.102217
0.0321716
0.00927975
0.00245576
0.000596766
0.000133259
2.73602e-05
5.16751e-06
8.98172e-07
1.43715e-07
2.11756e-08
2.87387e-09
3.59297e-10
4.14151e-11
4.46258e-12
0
0
0
0
0
0
0
0
0
0
0
0
0
0
0
0
0
0
0
0
0
0
0
0
0
0
0
0
0
0
0
0
0
0
0
0
0
0
0
4.93673e-12
4.60728e-11
3.99835e-10
3.19695e-09
2.35467e-08
1.59736e-07
9.978e-07
5.73741e-06
3.03575e-05
0.000147743
0.000661033
0.00271734
0.0102551
0.0354988
0.112577
0.326583
0.86496
2.08595
4.56373
9.00988
15.9194
24.8302
33.3212
36.2974
26.4749
-3.19144
-55.4314
-124.787
-196.717
-251.507
-272.034
-251.507
-196.717
-124.787
-55.4314
-3.19144
26.4749
36.2974
33.3212
24.8302
15.9194
9.00988
4.56373
2.08595
0.86496
0.326583
0.112577
0.0354988
0.0102551
0.00271734
0.000661033
0.000147743
3.03575e-05
5.73741e-06
9.978e-07
1.59736e-07
2.35467e-08
3.19694e-09
3.99841e-10
4.60815e-11
4.93673e-12
0
0
0
0
0
0
0
0
0
0
0
0
0
0
0
0
0
0
0
0
0
0
0
0
0
0
0
0
0
0
0
0
0
0
0
0
0
0
0
5.07117e-12
4.72177e-11
4.0999e-10
3.27747e-09
2.41344e-08
1.63684e-07
1.02217e-06
5.87566e-06
3.10774e-05
0.000151182
0.000676078
0.00277752
0.0104748
0.0362279
0.114768
0.332502
0.879165
2.11561
4.6152
9.07477
15.9396
24.6317
32.5182
34.1951
22.0345
-11.2432
-68.2995
-143.155
-220.306
-278.878
-300.789
-278.878
-220.306
-143.155
-68.2995
-11.2432
22.0345
34.1951
32.5182
24.6317
15.9396
9.07477
4.6152
2.11561
0.879165
0.332502
0.114768
0.0362279
0.0104748
0.00277752
0.000676078
0.000151182
3.10774e-05
5.87566e-06
1.02217e-06
1.63684e-07
2.41344e-08
3.27746e-09
4.0999e-10
4.72307e-11
5.07262e-12
0
0
0
0
0
0
0
0
0
0
0
0
0
0
0
0
0
0
0
0
0
0
0
0
0
0
0
0
0
0
0
0
0
0
0
0
0
0
0
4.79073e-12
4.43207e-11
3.84324e-10
3.07202e-09
2.26208e-08
1.53406e-07
9.57901e-07
5.50564e-06
2.91168e-05
0.000141624
0.00063323
0.00260098
0.00980672
0.0339076
0.10738
0.310962
0.821756
1.97604
4.30654
8.4564
14.8238
22.835
29.9757
31.1246
19.0825
-12.9918
-67.551
-138.872
-212.239
-267.881
-288.686
-267.881
-212.239
-138.872
-67.551
-12.9918
19.0825
31.1246
29.9757
22.835
14.8238
8.4564
4.30654
1.97604
0.821756
0.310962
0.10738
0.0339076
0.00980672
0.00260098
0.00063323
0.000141624
2.91168e-05
5.50564e-06
9.57901e-07
1.53406e-07
2.26208e-08
3.07201e-09
3.84316e-10
4.43236e-11
4.79651e-12
0
0
0
0
0
0
0
0
0
0
0
0
0
0
0
0
0
0
0
0
0
0
0
0
0
0
0
0
0
0
0
0
0
0
0
0
0
0
0
3.98264e-12
3.72994e-11
3.23407e-10
2.58487e-09
1.9034e-08
1.29086e-07
8.06076e-07
4.63323e-06
2.45044e-05
0.000119197
0.000532995
0.00218947
0.00825603
0.0285497
0.0904264
0.261919
0.692331
1.66537
3.63108
7.13449
12.518
19.3113
25.4164
26.546
16.6615
-9.98655
-55.4781
-115.043
-176.371
-222.904
-240.307
-222.904
-176.371
-115.043
-55.4781
-9.98655
16.6615
26.546
25.4164
19.3113
12.518
7.13449
3.63108
1.66537
0.692331
0.261919
0.0904264
0.0285497
0.00825603
0.00218947
0.000532995
0.000119197
2.45044e-05
4.63323e-06
8.06076e-07
1.29086e-07
1.9034e-08
2.58487e-09
3.234e-10
3.7298e-11
3.98408e-12
0
0
0
0
0
0
0
0
0
0
0
0
0
0
0
0
0
0
0
0
0
0
0
0
0
0
0
0
0
0
0
0
0
0
0
0
0
0
0
2.81025e-12
2.67769e-11
2.32927e-10
1.86127e-09
1.37062e-08
9.29627e-08
5.80567e-07
3.33744e-06
1.76537e-05
8.58876e-05
0.000384124
0.00157829
0.00595303
0.0205927
0.0652504
0.189093
0.500153
1.2041
2.62833
5.17239
9.09638
14.0843
18.6587
19.7716
13.1102
-5.45298
-37.4453
-79.5162
-122.931
-155.912
-168.254
-155.912
-122.931
-79.5162
-37.4453
-5.45298
13.1102
19.7716
18.6587
14.0843
9.09638
5.17239
2.62833
1.2041
0.500153
0.189093
0.0652504
0.0205927
0.00595303
0.00157829
0.000384124
8.58876e-05
1.76537e-05
3.33744e-06
5.80567e-07
9.29627e-08
1.37062e-08
1.86127e-09
2.32924e-10
2.67697e-11
2.81025e-12
0
0
0
0
0
0
0
0
0
0
0
0
0
0
0
0
0
0
0
0
0
0
0
0
0
0
0
0
0
0
0
0
0
0
0
0
0
0
0
1.48608e-12
1.39327e-11
1.21623e-10
9.72363e-10
7.16114e-09
4.85751e-08
3.0339e-07
1.74427e-06
9.22771e-06
4.4901e-05
0.000200852
0.00082544
0.00311423
0.0107761
0.0341585
0.0990374
0.262114
0.631531
1.37997
2.7197
4.7933
7.44694
9.92493
10.6545
7.39966
-1.98965
-18.3262
-39.901
-62.2148
-79.1866
-85.5407
-79.1866
-62.2148
-39.901
-18.3262
-1.98965
7.39966
10.6545
9.92493
7.44694
4.7933
2.7197
1.37997
0.631531
0.262114
0.0990374
0.0341585
0.0107761
0.00311423
0.00082544
0.000200852
4.4901e-05
9.22771e-06
1.74427e-06
3.0339e-07
4.85751e-08
7.16114e-09
9.72363e-10
1.21617e-10
1.39284e-11
1.48897e-12
0
0
0
0
0
0
0
0
0
0
0
0
0
0
0
0
0
0
0
0
0
0
0
0
0
0
0
0
0
0
0
0
0
0
0
0
0
0
0
0
0
0
0
0
0
0
0
0
0
0
0
0
0
0
0
0
0
0
0
0
0
0
0
0
0
0
0
0
0
0
0
0
0
0
0
0
0
0
0
0
0
0
0
0
0
0
0
0
0
0
0
0
0
0
0
0
0
0
0
0
0
0
0
0
0
0
0
0
0
0
0
0
0
0
0
0
0
0
0
0
0
0
0
0
0
0
0
0
0
0
0
0
0
0
0
0
0
0
0
-1.48897e-12
-1.39284e-11
-1.21617e-10
-9.72363e-10
-7.16114e-09
-4.85751e-08
-3.0339e-07
-1.74427e-06
-9.22771e-06
-4.4901e-05
-0.000200852
-0.00082544
-0.00311423
-0.0107761
-0.0341585
-0.0990374
-0.262114
-0.631531
-1.37997
-2.7197
-4.7933
-7.44694
-9.92493
-10.6545
-7.39966
1.98965
18.3262
39.901
62.2148
79.1866
85.5407
79.1866
62.2148
39.901
18.3262
1.98965
-7.39966
-10.6545
-9.92493
-7.44694
-4.7933
-2.7197
-1.37997
-0.631531
-0.262114
-0.0990374
-0.0341585
-0.0107761
-0.00311423
-0.00082544
-0.000200852
-4.4901e-05
-9.22771e-06
-1.74427e-06
-3.0339e-07
-4.85751e-08
-7.16114e-09
-9.72363e-10
-1.21623e-10
-1.39327e-11
-1.48608e-12
0
0
0
0
0
0
0
0
0
0
0
0
0
0
0
0
0
0
0
0
0
0
0
0
0
0
0
0
0
0
0
0
0
0
0
0
0
0
0
-2.81025e-12
-2.67697e-11
-2.32924e-10
-1.86127e-09
-1.37062e-08
-9.29627e-08
-5.80567e-07
-3.33744e-06
-1.76537e-05
-8.58876e-05
-0.000384124
-0.00157829
-0.00595303
-0.0205927
-0.0652504
-0.189093
-0.500153
-1.2041
-2.62833
-5.17239
-9.09638
-14.0843
-18.6587
-19.7716
-13.1102
5.45298
37.4453
79.5162
122.931
155.912
168.254
155.912
122.931
79.5162
37.4453
5.45298
-13.1102
-19.7716
-18.6587
-14.0843
-9.09638
-5.17239
-2.62833
-1.2041
-0.500153
-0.189093
-0.0652504
-0.0205927
-0.00595303
-0.00157829
-0.000384124
-8.58876e-05
-1.76537e-05
-3.33744e-06
-5.80567e-07
-9.29627e-08
-1.37062e-08
-1.86127e-09
-2.32927e-10
-2.67769e-11
-2.81025e-12
0
0
0
0
0
0
0
0
0
0
0
0
0
0
0
0
0
0
0
0
0
0
0
0
0
0
0
0
0
0
0
0
0
0
0
0
0
0
0
-3.98408e-12
-3.7298e-11
-3.234e-10
-2.58487e-09
-1.9034e-08
-1.29086e-07
-8.06076e-07
-4.63323e-06
-2.45044e-05
-0.000119197
-0.000532995
-0.00218947
-0.00825603
-0.0285497
-0.0904264
-0.261919
-0.692331
-1.66537
-3.63108
-7.13449
-12.518
-19.3113
-25.4164
-26.546
-16.6615
9.98655
55.4781
115.043
176.371
222.904
240.307
222.904
176.371
115.043
55.4781
9.98655
-16.6615
-26.546
-25.4164
-19.3113
-12.518
-7.13449
-3.63108
-1.66537
-0.692331
-0.261919
-0.0904264
-0.0285497
-0.00825603
-0.00218947
-0.000532995
-0.000119197
-2.45044e-05
-4.63323e-06
-8.06076e-07
-1.29086e-07
-1.9034e-08
-2.58487e-09
-3.23407e-10
-3.72994e-11
-3.98264e-12
0
0
0
0
0
0
0
0
0
0
0
0
0
0
0
0
0
0
0
0
0
0
0
0
0
0
0
0
0
0
0
0
0
0
0
0
0
0
0
-4.79651e-12
-4.43236e-11
-3.84316e-10
-3.07201e-09
-2.26208e-08
-1.53406e-07
-9.57901e-07
-5.50564e-06
-2.91168e-05
-0.000141624
-0.00063323
-0.00260098
-0.00980672
-0.0339076
-0.10738
-0.310962
-0.821756
-1.97604
-4.30654
-8.4564
-14.8238
-22.835
-29.9757
-31.1246
-19.0825
12.9918
67.551
138.872
212.239
267.881
288.686
267.881
212.239
138.872
67.551
12.9918
-19.0825
-31.1246
-29.9757
-22.835
-14.8238
-8.4564
-4.30654
-1.97604
-0.821756
-0.310962
-0.10738
-0.0339076
-0.00980672
-0.00260098
-0.00063323
-0.000141624
-2.91168e-05
-5.50564e-06
-9.57901e-07
-1.53406e-07
-2.26208e-08
-3.07202e-09
-3.84324e-10
-4.43207e-11
-4.79073e-12
0
0
0
0
0
0
0
0
0
0
0
0
0
0
0
0
0
0
0
0
0
0
0
0
0
0
0
0
0
0
0
0
0
0
0
0
0
0
0
-5.07262e-12
-4.72307e-11
-4.0999e-10
-3.27746e-09
-2.41344e-08
-1.63684e-07
-1.02217e-06
-5.87566e-06
-3.10774e-05
-0.000151182
-0.000676078
-0.00277752
-0.0104748
-0.0362279
-0.114768
-0.332502
-0.879165
-2.11561
-4.6152
-9.07477
-15.9396
-24.6317
-32.5182
-34.1951
-22.0345
11.2432
68.2995
143.155
220.306
278.878
300.789
278.878
220.306
143.155
68.2995
11.2432
-22.0345
-34.1951
-32.5182
-24.6317
-15.9396
-9.07477
-4.6152
-2.11561
-0.879165
-0.332502
-0.114768
-0.0362279
-0.0104748
-0.00277752
-0.000676078
-0.000151182
-3.10774e-05
-5.87566e-06
-1.02217e-06
-1.63684e-07
-2.41344e-08
-3.27747e-09
-4.0999e-10
-4.72177e-11
-5.07117e-12
0
0
0
0
0
0
0
0
0
0
0
0
0
0
0
0
0
0
0
0
0
0
0
0
0
0
0
0
0
0
0
0
0
0
0
0
0
0
0
-4.93673e-12
-4.60815e-11
-3.99841e-10
-3.19694e-09
-2.35467e-08
-1.59736e-07
-9.978e-07