# vtk DataFile Version 3.0
fluid_state
ASCII
DATASET RECTILINEAR_GRID
DIMENSIONS 100 100 1
X_COORDINATES 100 double
0 1 2 3 4 5 6 7 8 9 10 11 12 13 14 15 16 17 18 19 20 21 22 23 24 25 26 27 28 29 30 31 32 33 34 35 36 37 38 39 40 41 42 43 44 45 46 47 48 49 50 51 52 53 54 55 56 57 58 59 60 61 62 63 64 65 66 67 68 69 70 71 72 73 74 75 76 77 78 79 80 81 82 83 84 85 86 87 88 89 90 91 92 93 94 95 96 97 98 99 
Y_COORDINATES 100 double
0 1 2 3 4 5 6 7 8 9 10 11 12 13 14 15 16 17 18 19 20 21 22 23 24 25 26 27 28 29 30 31 32 33 34 35 36 37 38 39 40 41 42 43 44 45 46 47 48 49 50 51 52 53 54 55 56 57 58 59 60 61 62 63 64 65 66 67 68 69 70 71 72 73 74 75 76 77 78 79 80 81 82 83 84 85 86 87 88 89 90 91 92 93 94 95 96 97 98 99 
Z_COORDINATES 1 double
0
POINT_DATA 10000
SCALARS vorticity float 1
LOOKUP_TABLE default
0.043467
0.0280723
-0.0129004
-0.124276
-0.244938
-0.339296
-0.405201
-0.485975
-0.596489
-0.678775
-0.735303
-0.832303
-0.936879
-0.996116
-1.0617
-1.16864
-1.24686
-1.29324
-1.37295
-1.46668
-1.5154
-1.56238
-1.64251
-1.7084
-1.74084
-1.79066
-1.85413
-1.89441
-1.92088
-1.96085
-1.99641
-2.01881
-2.03634
-2.05169
-2.06126
-2.07108
-2.06858
-2.05354
-2.04493
-2.04016
-2.01058
-1.97181
-1.95115
-1.9265
-1.87108
-1.81788
-1.78494
-1.73762
-1.66488
-1.60461
-1.55845
-1.49241
-1.41121
-1.34652
-1.28835
-1.21009
-1.1262
-1.06005
-0.994301
-0.909972
-0.828881
-0.764673
-0.694491
-0.609921
-0.536952
-0.475973
-0.404372
-0.327976
-0.267155
-0.208675
-0.142139
-0.0827591
-0.0346909
0.0202781
0.0732584
0.110556
0.146756
0.193511
0.226929
0.244623
0.270599
0.303203
0.314916
0.319351
0.33517
0.343183
0.327028
0.319156
0.320103
0.294006
0.250366
0.237633
0.222996
0.160713
0.100976
0.0943345
0.0240999
-0.102153
-0.0361168
-0.0449755
0.125113
-0.272132
-0.285818
-0.215857
-0.456633
-0.63887
-0.779711
-0.951924
-1.09835
-1.22515
-1.42299
-1.58976
-1.68156
-1.84295
-2.05602
-2.16887
-2.25317
-2.44844
-2.63303
-2.69803
-2.78866
-2.99569
-3.13607
-3.15359
-3.25377
-3.46612
-3.54651
-3.52084
-3.65291
-3.84798
-3.83902
-3.80116
-3.96877
-4.08706
-3.99116
-3.9848
-4.14427
-4.13898
-4.01201
-4.04582
-4.12138
-4.01161
-3.917
-3.94132
-3.89605
-3.75454
-3.70268
-3.65127
-3.52025
-3.40727
-3.34871
-3.20174
-3.0616
-2.97962
-2.85818
-2.6651
-2.57022
-2.46833
-2.28513
-2.12156
-2.0559
-1.89406
-1.7127
-1.60317
-1.5084
-1.31925
-1.19607
-1.09049
-0.957847
-0.813921
-0.730086
-0.581851
-0.474949
-0.400551
-0.295475
-0.135894
-0.108548
-0.0499926
0.0907954
0.189565
0.162692
0.268945
0.384177
0.382741
0.362651
0.498988
0.515873
0.443794
0.453173
0.551871
0.476623
0.396492
0.386511
0.424363
0.332205
0.211111
0.0784552
0.369547
0.483149
-0.150769
0.0964871
-0.397204
-0.477039
-0.180504
-0.0427721
-0.161258
-0.406717
-0.384722
-0.225492
-0.41378
-0.656339
-0.491154
-0.422027
-0.742903
-0.815526
-0.589045
-0.724863
-1.01843
-0.897565
-0.776556
-1.04777
-1.18442
-0.992144
-1.02826
-1.2894
-1.2761
-1.13594
-1.26237
-1.42788
-1.35804
-1.30416
-1.42472
-1.5049
-1.45432
-1.4388
-1.50529
-1.55881
-1.52932
-1.49927
-1.52748
-1.57422
-1.53951
-1.49275
-1.49722
-1.526
-1.48478
-1.42988
-1.40353
-1.42118
-1.37826
-1.30227
-1.2559
-1.28155
-1.21887
-1.11586
-1.08622
-1.11784
-1.00735
-0.90915
-0.921042
-0.922522
-0.765863
-0.721779
-0.756233
-0.685694
-0.534303
-0.571518
-0.564407
-0.427084
-0.35318
-0.44285
-0.336599
-0.192663
-0.231699
-0.301829
-0.0991681
-0.0217165
-0.141912
-0.124974
0.108245
0.0634763
-0.0533454
0.0790064
0.24135
0.0579849
0.0341474
0.256534
0.260507
-0.00441831
0.132108
0.362792
0.178946
-0.0533303
0.259131
0.372943
-0.0241905
-0.0328218
0.728072
0.523939
-0.322232
-0.0413983
-0.359662
-0.383182
-0.00876769
0.167361
0.0507825
-0.0172641
0.116154
0.179624
0.0360083
0.0737612
0.238211
0.158322
0.0516146
0.21059
0.285451
0.119508
0.13086
0.326143
0.266955
0.107301
0.243034
0.392904
0.226006
0.145293
0.372165
0.415896
0.196867
0.242854
0.475875
0.386317
0.206837
0.365677
0.50688
0.333986
0.269557
0.451857
0.464879
0.314363
0.353789
0.460066
0.399273
0.34118
0.401208
0.404767
0.359788
0.379051
0.384711
0.335052
0.356381
0.381081
0.314085
0.290242
0.36004
0.320965
0.23371
0.28215
0.327035
0.218886
0.192455
0.274378
0.238654
0.139542
0.187402
0.222362
0.1469
0.11705
0.160374
0.13827
0.11314
0.106095
0.0851418
0.0908256
0.12586
0.0535047
0.0158752
0.106299
0.105641
-0.023186
0.0294006
0.132623
0.0186771
-0.0547857
0.101433
0.0832441
-0.0968665
-0.021369
0.130959
-0.0257645
-0.126352
0.0473445
0.069384
-0.0912666
-0.047061
0.0677853
-0.125645
-0.0567199
0.399841
0.0677829
-0.238661
-0.161331
-0.556525
-0.207435
0.216513
-0.141578
-0.127887
0.145192
0.0253301
-0.194828
-0.0258575
0.145641
-0.107253
-0.193327
0.0872259
0.0542132
-0.225959
-0.0925723
0.119516
-0.1049
-0.241804
0.0165176
0.0423449
-0.226574
-0.170801
0.0609793
-0.0678955
-0.244744
-0.0749821
0.0359431
-0.14194
-0.189717
-0.0300099
-0.0275916
-0.152293
-0.128145
-0.0404491
-0.0658582
-0.121376
-0.103544
-0.0685878
-0.0705299
-0.0910456
-0.0986737
-0.0828081
-0.0615141
-0.0692326
-0.0964651
-0.0889749
-0.0478402
-0.0540336
-0.101021
-0.0845
-0.0269649
-0.0574126
-0.113578
-0.0651131
-0.0167151
-0.0838609
-0.115497
-0.0340029
-0.024763
-0.113337
-0.0896054
-0.00325338
-0.0569653
-0.125842
-0.035423
0.00846411
-0.102079
-0.10052
0.0356868
-0.00859374
-0.140281
-0.0399218
0.0886514
-0.0504012
-0.137139
0.0468387
0.0955706
-0.0959003
-0.0602497
0.135518
0.0307412
-0.133506
0.0556878
0.15794
-0.0977813
-0.125923
0.171481
0.0990528
-0.188669
-0.023806
0.228917
-0.0667913
-0.157348
0.120635
0.0198916
0.0773653
-0.023069
-0.125703
-0.248963
-0.663724
-0.259336
0.106069
-0.0925262
0.0527147
0.0514373
-0.0664921
0.00862898
0.0883569
-0.0117382
-0.0617767
0.0749352
0.0721438
-0.0682286
-0.0141288
0.111387
0.0105394
-0.0832169
0.044963
0.101146
-0.0483135
-0.0688664
0.0904207
0.075457
-0.0886667
-0.0291654
0.138269
0.0452469
-0.102392
0.0352151
0.158827
-0.00882117
-0.0890266
0.0957744
0.12441
-0.0573534
-0.0396506
0.118238
0.0622233
-0.0556456
0.0155453
0.0823615
0.0148867
-0.0109672
0.0316302
0.0267471
0.0182339
0.0327982
0.00410705
-0.00112582
0.0520584
0.0292798
-0.0379838
0.0191569
0.0747464
-0.0210316
-0.0455431
0.0684377
0.0410617
-0.0700246
0.00141409
0.0798832
-0.0253814
-0.0555108
0.0513888
0.0279229
-0.0471469
0.00985337
0.0301727
-0.0328743
0.00746406
0.0476465
-0.0436373
-0.0346694
0.0756683
0.0150511
-0.0708693
0.0392824
0.0842505
-0.0377494
-0.008197
0.10518
0.00294982
-0.0765188
0.0687194
0.0984762
-0.0724068
-0.0523745
0.0968451
0.0446012
-0.0768951
0.00869471
0.0303864
-0.00794642
0.0270692
-0.0910982
0.370186
0.326627
-0.124521
-0.347834
-0.813978
-0.452703
-0.032449
0.0946717
0.113822
-0.166919
-0.0425946
0.184506
-0.0342356
-0.171583
0.0969966
0.132641
-0.162564
-0.0754777
0.181812
-0.0123691
-0.196772
0.0682807
0.142658
-0.154896
-0.123087
0.156396
0.0197741
-0.212993
-0.00172642
0.162532
-0.0896048
-0.159758
0.102495
0.0958285
-0.131865
-0.0600514
0.118921
0.0151349
-0.101585
0.00888514
0.0736762
-0.015446
-0.043993
0.0169788
0.0286294
-0.000305682
-0.0030885
-0.000212028
0.00443428
0.0207695
0.010931
-0.0212075
-0.00236074
0.0389649
0.00380523
-0.0396662
0.0123304
0.0414907
-0.0247776
-0.0397112
0.0317596
0.020926
-0.0527309
-0.0221409
0.0405012
-0.0140459
-0.0642599
0.00640692
0.041138
-0.0519155
-0.0610337
0.0483244
0.0353075
-0.0929725
-0.0482935
0.0950569
0.0173076
-0.124997
-0.00558132
0.12245
-0.0225735
-0.0958836
0.0979433
0.106344
-0.0964799
-0.0171943
0.173817
-0.00822854
-0.172142
0.0899384
0.181423
-0.126686
-0.127767
0.185775
0.0592021
-0.18593
0.0244016
0.156051
-0.0662295
-0.211396
0.515628
0.470694
-0.125239
-0.437045
-1.08103
-0.454183
0.188619
-0.0157599
-0.0829652
0.0197606
0.0987509
-0.0604293
-0.0753785
0.101889
0.0436167
-0.110696
0.00288532
0.11992
-0.045155
-0.0990116
0.0777969
0.064722
-0.102337
-0.0373658
0.099067
-0.00399349
-0.114422
0.004628
0.0845713
-0.0422849
-0.102095
0.0444086
0.0958874
-0.0522979
-0.0808601
0.078231
0.0837677
-0.0804653
-0.0561683
0.103459
0.0459024
-0.0945131
-0.0121109
0.0960218
0.00429623
-0.063046
0.0172727
0.0470993
-0.00305941
-0.0117049
0.000838545
0.00480379
0.0247684
0.00522597
-0.038141
0.00668777
0.0553534
-0.0267279
-0.0585462
0.0505548
0.0415234
-0.0843651
-0.0241551
0.0838837
-0.028579
-0.0968912
0.0439136
0.0445991
-0.087113
-0.0277062
0.0615599
-0.0472024
-0.0571497
0.0654172
-0.00902633
-0.116329
0.0261923
0.0856258
-0.085582
-0.0710967
0.110924
0.0449042
-0.0724626
0.0485665
0.0909553
-0.0716074
-0.0346124
0.1347
0.0249462
-0.129335
0.0247413
0.147981
-0.0306055
-0.102969
0.0576375
0.0863839
-0.0444246
-0.0577996
0.110586
-0.00943358
0.296794
0.323667
-0.0510284
-0.522294
-1.19851
-0.383117
0.245179
-0.14707
-0.0586525
0.150823
0.0129918
-0.15908
0.0590421
0.14313
-0.120612
-0.0917716
0.161907
0.027349
-0.178795
0.0460995
0.158586
-0.116484
-0.124164
0.154212
0.0528315
-0.195947
-0.0080146
0.176643
-0.0897048
-0.1934
0.111261
0.12887
-0.171633
-0.0878997
0.18413
0.0349275
-0.167862
0.0229477
0.149245
-0.0431456
-0.0996789
0.067592
0.0801573
-0.0393254
-0.0314506
0.0416954
0.0344193
-0.00101951
-0.00457926
0.00188777
0.0189013
0.0294514
-0.00611789
-0.0259337
0.0267696
0.0363026
-0.0330036
-0.0247295
0.048033
0.00983332
-0.0534737
0.00474415
0.0445144
-0.033991
-0.0493395
0.0311957
0.0237055
-0.0584397
-0.0324386
0.0482498
0.01829
-0.0741973
-0.0460848
0.0579932
0.0353192
-0.0918301
-0.0623507
0.0789915
0.0413096
-0.0782464
0.0217974
0.125685
-0.0106348
-0.0543194
0.124479
0.0706561
-0.151447
-0.0173533
0.203707
-0.00562206
-0.18363
0.0733953
0.155979
-0.110997
-0.085067
0.142966
0.0279836
-0.137367
0.080069
0.0429332
0.309004
0.391788
0.00931305
-0.619744
-1.22448
-0.495847
0.011399
-0.00093547
0.135628
-0.0832332
-0.103509
0.126827
0.0619295
-0.153761
-0.00130868
0.160869
-0.0623768
-0.133061
0.117375
0.0862206
-0.151829
-0.0253367
0.152285
-0.0375615
-0.138622
0.0749163
0.0932228
-0.118624
-0.0890237
0.0958094
0.0260016
-0.1278
-0.0328401
0.111063
0.0207044
-0.0957105
-0.00333403
0.104163
0.00956621
-0.0922437
0.0130324
0.104794
-0.0149026
-0.0867157
0.0359686
0.081346
-0.0239915
-0.0435412
0.0271776
0.0338556
0.00095182
-0.0118123
-0.0126539
0.0163631
0.0367296
-0.0191681
-0.0438811
0.0375869
0.0413857
-0.0680559
-0.0365183
0.0739933
-0.00846293
-0.102411
0.0264547
0.0662206
-0.0835836
-0.0573229
0.0740409
-0.0263609
-0.097028
0.0604345
0.0446288
-0.151315
-0.0472108
0.129786
-0.045112
-0.17095
0.0686592
0.148188
-0.0577957
-0.0344503
0.126165
-0.00673835
-0.113091
0.0951325
0.128235
-0.135096
-0.095637
0.185004
0.0918348
-0.161029
-0.0235573
0.17012
-0.000352726
-0.131647
0.0737879
0.138012
-0.0557451
-0.170829
0.611645
0.704794
0.0125675
-0.711463
-1.50187
-0.658525
0.104049
0.0656533
0.023903
-0.114166
0.0327059
0.111582
-0.0808114
-0.0842942
0.123675
0.0364166
-0.145421
0.0275226
0.140531
-0.0830473
-0.108052
0.129503
0.0567454
-0.155743
-0.00558196
0.159468
-0.0595281
-0.162215
0.0931942
0.105605
-0.190129
-0.117787
0.184161
0.0381454
-0.215035
0.0197173
0.210225
-0.0594583
-0.161598
0.110019
0.13239
-0.101238
-0.0675488
0.111516
0.0629063
-0.0564889
-0.0232222
0.0488167
0.0398044
-0.000536415
-0.0191455
0.00173851
0.0452263
0.0254163
-0.0426167
-0.0128164
0.0640588
0.00320151
-0.0689056
0.0208126
0.0597283
-0.0578807
-0.0544302
0.0610271
0.0142664
-0.0912596
-0.009205
0.0740322
-0.0133173
-0.0784543
-0.0157907
0.0341985
0.012538
-0.0511877
-0.0806149
-0.0130836
0.057403
-0.00866479
-0.0291466
0.0818441
0.083555
-0.015059
0.0458215
0.0898782
-0.0837916
-0.0978609
0.154256
0.126493
-0.146817
-0.0750145
0.160373
0.0301287
-0.129802
0.036302
0.112816
-0.0617802
-0.0439967
0.105285
0.0318778
-0.206272
0.572484
0.76221
0.0536651
-0.791829
-1.72549
-0.576212
0.336317
-0.122448
-0.128529
0.131209
0.093791
-0.171272
-0.0321267
0.191002
-0.0432171
-0.181165
0.118804
0.135522
-0.176998
-0.0561461
0.206754
-0.0233251
-0.189599
0.104746
0.141011
-0.157525
-0.0832937
0.176951
0.00768421
-0.204244
0.00313597
0.140844
-0.0920192
-0.159098
0.0846667
0.129171
-0.0720866
-0.081014
0.0866411
0.0871718
-0.0657438
-0.0712748
0.080952
0.0839281
-0.0707031
-0.0609326
0.0802818
0.0619516
-0.0472368
-0.0298209
0.0379529
0.0330884
-0.00223149
-0.0198091
-0.00512196
0.0317246
0.0197034
-0.0421837
-0.0264701
0.0456783
-0.000256918
-0.0803409
0.000574442
0.0532206
-0.0579369
-0.0663321
0.0540755
-0.00918245
-0.0973876
0.0470981
0.0755005
-0.150291
-0.115323
0.130613
0.0117596
-0.234094
-0.0201128
0.222927
0.037209
-0.090732
0.0901023
0.0612133
-0.131998
0.015424
0.184627
-0.0775295
-0.211171
0.128794
0.232239
-0.114607
-0.146803
0.164402
0.1145
-0.152374
-0.0114274
0.188303
-0.0259084
-0.137422
0.140752
-0.0238192
0.419253
0.726142
0.15512
-0.882717
-1.72805
-0.585899
0.151025
-0.108115
0.0609613
0.0530657
-0.0723161
-0.03926
0.0919965
0.00919478
-0.108522
0.0321397
0.105971
-0.0774087
-0.0762684
0.116668
0.0338496
-0.122429
0.020418
0.124555
-0.0604849
-0.100852
0.0951351
0.0757135
-0.133209
-0.064089
0.13024
-0.026398
-0.233374
0.00250458
0.19776
-0.0783833
-0.191557
0.140571
0.174187
-0.151961
-0.0976941
0.187331
0.0732033
-0.144135
-0.0150851
0.138455
0.0380424
-0.0637395
-0.0129577
0.0589012
0.0528107
-0.00691662
-0.0413615
0.0146256
0.0755403
-0.00131602
-0.0791866
0.0254819
0.0812542
-0.0637171
-0.0781895
0.0778494
0.0280149
-0.122481
-0.0098448
0.109596
-0.0310431
-0.110407
0.01443
0.0378709
-0.0282987
-0.0207629
-0.0551144
-0.116434
-0.008419
0.0750316
-0.0104611
0.00376884
0.144512
0.100102
-0.000627419
0.0287937
-0.0233646
-0.121419
0.0590447
0.219647
-0.0182562
-0.189869
0.0465225
0.156031
-0.0601716
-0.0930483
0.105654
0.0683985
-0.0790472
0.0107577
0.0814446
-0.044257
-0.00119668
-0.0749995
0.592998
0.937089
0.21917
-0.975425
-1.87981
-0.782823
0.045936
0.0685328
0.119234
-0.162662
-0.0595319
0.188177
-0.00772992
-0.19768
0.0821445
0.17259
-0.161225
-0.114012
0.217758
0.0281299
-0.226287
0.0852083
0.202698
-0.156631
-0.127236
0.213196
0.0431608
-0.225118
0.0443606
0.211912
-0.139462
-0.225879
0.12495
0.105299
-0.227063
-0.100732
0.218742
0.081316
-0.155426
-0.017398
0.151977
0.027819
-0.126524
-0.0208016
0.142081
0.0457615
-0.120426
-0.0249791
0.120933
0.0412426
-0.0696966
-0.0149741
0.0650956
0.0330409
-0.0314719
-0.023757
0.0203859
0.0182248
-0.0256789
-0.0431914
-0.00275728
0.0123349
-0.0416494
-0.0463458
0.0134546
-0.0229411
-0.0619366
0.0515807
0.0735107
-0.13831
-0.14602
0.0965434
0.0301717
-0.267788
-0.116903
0.260744
0.191842
-0.0595921
0.018741
0.0719415
-0.105406
-0.0569808
0.172338
-0.0100907
-0.2868
-0.00206635
0.326722
0.0432703
-0.222491
0.0454762
0.202813
-0.0698781
-0.103001
0.167424
0.0781779
-0.156572
0.0368593
0.151963
-0.0757668
-0.251753
0.839403
1.23314
0.255438
-1.06058
-2.19876
-0.798547
0.320967
-0.0507682
-0.0960726
0.0210728
0.0938218
-0.0497729
-0.0884863
0.0703532
0.071338
-0.0989877
-0.0449589
0.124564
-0.0020379
-0.128093
0.0604727
0.11601
-0.0926446
-0.053215
0.129551
0.0187687
-0.12445
0.0233708
0.116127
-0.0478815
-0.11665
0.0558672
0.0674008
-0.186428
-0.19673
0.13207
0.141763
-0.179428
-0.0905146
0.245243
0.0749024
-0.218782
0.0140072
0.23555
-0.0174521
-0.16116
0.0558719
0.156297
0.0129879
-0.0683322
-0.00037819
0.0746983
0.0591803
-0.0227072
-0.0547502
0.0414444
0.0857751
-0.0575772
-0.0986592
0.0672111
0.0497962
-0.130818
-0.0385043
0.131799
-0.0146355
-0.142923
0.0126377
0.0546663
-0.052916
-0.00903639
-0.0127313
-0.218651
-0.163676
0.12306
0.101901
-0.0325122
0.158269
0.257109
0.0195981
-0.0997452
-0.0308527
-0.0931861
-0.0221777
0.257623
0.176877
-0.209566
-0.161733
0.161924
0.0847815
-0.150495
0.00368598
0.184667
-0.00435733
-0.101299
0.082152
0.0535619
-0.0816206
0.00424007
0.0743431
-0.235946
0.723831
1.31651
0.357498
-1.14566
-2.25162
-0.690598
0.310309
-0.187825
-0.0404927
0.146924
0.00438674
-0.167195
0.0443005
0.161442
-0.113467
-0.137149
0.175272
0.0766603
-0.221049
0.0205106
0.226372
-0.1139
-0.165486
0.21016
0.0989285
-0.228765
0.00845828
0.238284
-0.0973302
-0.198136
0.188308
0.143662
-0.298703
-0.159929
0.234426
-0.0214351
-0.324507
0.0589911
0.316871
-0.0362716
-0.197071
0.0846767
0.176514
-0.0587418
-0.163759
0.0497558
0.190096
-0.0105894
-0.158677
0.0255817
0.163079
0.0211012
-0.0987379
0.00945305
0.106179
0.00250709
-0.0891383
-0.0125261
0.0376932
-0.0401174
-0.0706594
-0.0149083
-0.0135933
-0.0656645
-0.0228956
0.088948
0.0520128
-0.133063
-0.128614
0.0517365
-0.0278709
-0.321042
-0.178569
0.295334
0.382848
0.0866138
-0.0319869
-0.00420398
-0.0859388
-0.0708607
0.118781
-0.001536
-0.345556
-0.184637
0.338094
0.277992
-0.159644
-0.126992
0.163483
0.0737184
-0.113712
0.0689865
0.157975
-0.0945061
-0.0555026
0.154786
-0.016708
-0.135569
0.116129
-0.143546
0.675224
1.4532
0.499047
-1.2307
-2.30289
-0.894712
0.0664605
0.0171467
0.139771
-0.119567
-0.0956718
0.127605
0.0519835
-0.143965
-0.0196805
0.152408
-0.0283049
-0.152502
0.0843705
0.132928
-0.142141
-0.0684034
0.190827
0.00637183
-0.160479
0.0979366
0.137618
-0.131897
-0.0807085
0.158599
0.0393996
-0.145273
-0.00187278
0.119543
-0.116159
-0.319663
-0.0665302
0.240784
0.0292789
-0.226334
0.0699376
0.298723
-0.0763285
-0.238837
0.166489
0.246746
-0.122035
-0.149674
0.130752
0.16568
-0.0175736
-0.0627802
0.0365806
0.091003
0.0403054
-0.0516527
-0.0594836
0.0514729
0.0385478
-0.124999
-0.0705895
0.11889
0.0131651
-0.16485
-0.040368
0.0611971
-0.0298175
0.00765773
0.000165742
-0.353027
-0.421417
0.0976903
0.327874
0.0725943
0.172314
0.39942
0.0915058
-0.259799
-0.14537
-0.0501637
-0.0430669
0.271563
0.416427
-0.0822376
-0.38648
-0.0317803
0.182716
-0.106607
-0.129025
0.225044
0.16218
-0.148243
-0.00639316
0.150024
-0.0555767
-0.0838043
0.0791502
-0.0091158
-0.0688367
-0.212976
0.946441
1.76852
0.59566
-1.31478
-2.60167
-1.00996
0.256109
0.0338499
-0.0218698
-0.105236
0.046728
0.0904057
-0.0822495
-0.0936661
0.111688
0.0718774
-0.157105
-0.0182398
0.189115
-0.0582867
-0.180561
0.148175
0.123956
-0.196938
-0.0109664
0.241916
-0.0521717
-0.193738
0.139348
0.159083
-0.200036
-0.0689343
0.285517
-0.0329658
-0.423385
-0.00577334
0.282117
-0.230774
-0.316404
0.314931
0.328894
-0.20687
-0.178287
0.192411
0.149211
-0.164971
-0.180196
0.139645
0.225687
-0.0683336
-0.169967
0.0894367
0.206255
-0.0101737
-0.140781
0.036313
0.117129
-0.0850974
-0.149189
0.00855376
-0.00111124
-0.126239
-0.0131213
0.159622
0.0563943
-0.139801
-0.0983589
-0.000975781
-0.206347
-0.466568
-0.149899
0.45461
0.631204
0.316852
-0.039075
-0.190076
-0.141459
-0.00846061
0.0859232
-0.0916216
-0.457437
-0.407991
0.255666
0.548226
0.100164
-0.227401
-0.0489561
0.138088
0.0235024
-0.0165307
0.130921
0.00753335
-0.114082
0.0948813
0.0875967
-0.114586
0.0144853
0.0878485
-0.098489
-0.34183
1.14766
2.10078
0.700846
-1.40621
-2.76231
-0.831191
0.424518
-0.225957
-0.100452
0.174636
0.0472263
-0.193776
-0.00438411
0.181339
-0.0500959
-0.17489
0.0963309
0.158246
-0.153032
-0.109885
0.215977
0.0331346
-0.242714
0.08519
0.223087
-0.155748
-0.0983262
0.252094
0.0225621
-0.243423
0.067164
0.226051
-0.116577
-0.137351
0.180429
0.0417003
-0.393426
-0.355365
0.133467
0.282941
-0.11673
-0.19787
0.270563
0.294097
-0.256526
-0.195797
0.337327
0.221483
-0.218967
-0.108095
0.223623
0.175481
-0.056629
-0.037405
0.0785175
0.0497173
-0.0533534
-0.1045
-0.0389614
0.0711464
-0.0237039
-0.204865
-0.12745
0.0351276
0.0273099
0.0283073
-0.0842541
-0.626434
-0.802293
0.0908078
0.75889
0.412955
0.22931
0.433725
0.124125
-0.412692
-0.326163
-0.022813
0.0375401
0.337251
0.68861
0.211597
-0.525699
-0.445606
0.0695139
-0.0444736
-0.236959
0.22034
0.392479
-0.0999738
-0.161892
0.185941
0.0553777
-0.145161
0.0499681
0.0563384
-0.133045
-0.0437284
0.0941094
-0.35001
1.04229
2.32111
0.87991
-1.48496
-2.73188
-0.93185
0.154361
-0.093298
0.116717
-0.0127756
-0.100238
0.00547688
0.0754453
-0.0154233
-0.086262
0.0147859
0.10171
-0.036155
-0.115357
0.093505
0.104167
-0.153185
-0.0454229
0.187331
-0.0460691
-0.151387
0.152639
0.14506
-0.154794
-0.0644849
0.201683
0.0298491
-0.208002
0.112928
0.259768
-0.317473
-0.466207
0.264039
0.242415
-0.504275
-0.13547
0.622483
0.202502
-0.405434
-0.112975
0.280858
0.0826962
-0.279627
-0.173929
0.233495
0.246271
-0.0892318
-0.143281
0.126108
0.188577
-0.0950264
-0.183797
0.0523662
0.042145
-0.181495
-0.0234225
0.268129
0.111432
-0.18222
-0.127627
-0.121193
-0.566806
-0.721867
0.155756
0.972833
0.934894
0.4609
-0.117421
-0.499858
-0.294649
0.108678
0.106164
-0.303575
-0.701504
-0.694565
0.0981149
0.849753
0.599502
-0.0512241
-0.374963
-0.110005
0.273604
0.105958
-0.0319052
-0.000938715
-0.122476
0.00796901
0.172576
-0.0172169
-0.0481933
0.077174
-0.0688623
-0.138995
0.0741555
-0.289205
1.16429
2.64842
1.06941
-1.55223
-2.9807
-1.23472
0.174616
0.124547
0.0480925
-0.217289
0.0147006
0.191263
-0.0761938
-0.18121
0.104698
0.149954
-0.148074
-0.122254
0.198837
0.0830047
-0.243007
0.0144491
0.266553
-0.142629
-0.23054
0.261371
0.128969
-0.255821
0.0888476
0.298464
-0.185727
-0.238481
0.274142
0.165031
-0.281232
0.0576046
0.33783
-0.274737
-0.666354
-0.23992
0.304344
0.22565
-0.255257
-0.0856312
0.514023
0.243331
-0.438977
-0.0918643
0.523432
0.220142
-0.255199
-0.0143991
0.317868
0.088239
-0.190399
-0.0283418
0.114057
-0.0157848
-0.198926
-0.274969
-0.213444
-0.0747707
-0.00536843
-0.0254699
-0.368985
-1.16518
-1.12595
0.543965
1.60795
0.926412
0.233538
0.246355
0.0037064
-0.498372
-0.451858
0.00407159
0.253348
0.564246
1.00468
0.608557
-0.499851
-1.04779
-0.379539
-0.158267
-0.458456
0.300882
0.839797
0.0348634
-0.403129
0.106812
0.23078
-0.115005
-0.0442538
0.0911274
-0.10348
-0.11543
0.0576246
-0.0278937
-0.120595
-0.330339
1.5569
3.09777
1.22376
-1.64178
-3.21629
-1.02639
0.492926
-0.179671
-0.139086
0.122586
0.0864319
-0.145267
-0.0525113
0.11793
0.0121907
-0.102024
-0.0121085
0.0871405
0.0165793
-0.0988127
-0.00035544
0.143091
-0.0464202
-0.148141
0.112099
0.076532
-0.180513
0.0364206
0.231293
-0.0195033
-0.143408
0.0923852
0.191392
-0.0884959
-0.141711
0.25375
0.0489708
-0.687712
-0.320219
0.746236
0.0570072
-0.87091
0.24538
0.949876
-0.0329471
-0.587159
-0.0386795
0.338336
-0.0317839
-0.390611
-0.12965
0.26493
0.129654
-0.216317
-0.165952
0.14672
0.126449
-0.144066
0.0202897
0.359406
0.105256
-0.369956
-0.3756
-0.462851
-1.04463
-0.665039
1.20441
1.89156
0.923662
0.0329571
-0.530918
-0.872404
-0.4397
0.229316
0.0708007
-0.649852
-1.06474
-1.00082
-0.0875933
1.18802
1.36139
0.678881
-0.570097
-1.00441
0.443335
0.783444
-0.243506
-0.380928
-0.216902
-0.0633327
0.251159
0.131215
-0.0588806
0.0682199
0.013943
-0.180337
-0.0743021
0.0557218
-0.035989
-0.45713
1.71895
3.54818
1.42725
-1.73078
-3.16843
-0.91961
0.291254
-0.26541
0.0809721
0.155258
-0.114694
-0.142412
0.125361
0.098269
-0.154289
-0.0845334
0.158748
0.0585116
-0.187362
-0.0218042
0.231284
-0.0382521
-0.245755
0.168709
0.195294
-0.310109
-0.0902874
0.352311
-0.0402018
-0.185001
0.301829
0.162247
-0.389703
-0.0528824
0.432578
-0.105101
-0.307256
0.512656
0.323237
-0.840886
-0.77146
-0.00324793
0.259056
-0.014673
-0.379972
0.131839
0.841208
0.190624
-0.558702
0.0915077
0.838099
0.296892
-0.452413
-0.186306
0.291305
0.0830737
-0.232987
-0.224247
-0.310324
-0.388943
-0.231677
-0.103671
-0.697708
-1.527
-0.517758
2.07796
2.64004
1.01664
-0.0849227
-0.109368
-0.118605
-0.364187
-0.340236
0.10466
0.58753
0.985968
1.32514
0.849429
-0.46395
-1.75596
-1.12442
-0.615622
-1.22445
0.492804
2.02712
0.338116
-0.86857
-0.133364
0.467152
0.124751
-0.189415
-0.0605491
-0.054197
-0.108249
-0.00966184
-0.0102916
-0.16173
-0.0460746
0.180873
-0.440786
1.71449
3.95849
1.69816
-1.77864
-3.29526
-1.33517
0.106351
0.139685
0.136351
-0.265878
-0.0432469
0.241843
-0.0433684
-0.214269
0.0784415
0.147829
-0.110516
-0.112594
0.0956387
0.0916767
-0.0910666
-0.0833908
0.137541
0.0895511
-0.195515
-0.0250043
0.183513
-0.155117
-0.159494
0.298017
0.179081
-0.1618
-0.0383156
0.257192
0.177241
-0.239646
-0.0978931
0.276602
-0.419655
-1.08157
0.255686
1.52282
-0.324014
-1.34016
0.658729
1.30376
-0.132374
-0.621308
0.163433
0.576109
-0.0396469
-0.640851
-0.747876
-0.501614
-0.205845
0.0237666
0.244209
0.325596
-0.227909
-0.959797
-0.962903
-0.793011
-0.830175
0.520037
2.65261
1.84603
-0.522747
-1.37685
-1.18285
-0.902976
-0.371821
0.200784
-0.204886
-1.04947
-1.25782
-0.97691
-0.185344
1.50198
2.41655
2.14228
-0.302282
-2.79209
0.0844361
2.35262
-0.266006
-1.42765
-0.695716
-0.137083
0.511025
0.323018
-0.129169
0.103945
0.200535
-0.207751
-0.272603
0.0103554
0.0141112
-0.0532173
0.0716838
-0.402169
2.11055
4.56197
1.96282
-1.84125
-3.61191
-1.32974
0.472693
-0.00500928
-0.153999
-0.0491816
0.167529
-0.00478238
-0.168305
0.0178113
0.131503
-0.0414873
-0.129999
0.0251602
0.116088
-0.0333602
-0.147968
0.0734417
0.189884
-0.142136
-0.143246
0.273316
-0.00453928
-0.382957
0.104545
0.298332
-0.116575
0.0922471
0.370002
-0.181841
-0.454219
0.313823
0.257086
-0.55827
0.208091
1.26942
0.0389034
-1.57397
-0.826882
0.322513
-0.0328562
-0.807388
-0.735535
0.4841
1.39052
0.51947
-0.347157
-0.107122
0.142174
-0.392658
-0.33743
0.205997
0.145514
-0.159436
0.215149
0.58158
-0.109756
-0.611143
1.42083
3.6775
2.13295
-0.0743995
-0.417068
0.0215837
0.220096
-0.0114792
-0.0646394
0.259465
0.902917
1.34102
1.46885
0.419734
-1.04305
-2.43277
-1.9773
-1.43858
-2.64346
0.709315
4.49317
1.15635
-1.69668
-0.649967
0.713661
0.838115
-0.20539
-0.692274
-0.186693
0.177616
-0.174386
-0.243526
-0.0509598
-0.0907673
0.0909
0.204726
-0.0144208
-0.546635
2.51214
5.2471
2.25825
-1.93691
-3.57222
-0.93282
0.469826
-0.399501
-0.00595995
0.311924
-0.0796641
-0.294165
0.151537
0.223261
-0.214622
-0.162011
0.204881
0.0736229
-0.205919
-0.0428576
0.172865
0.0299887
-0.171143
0.0064403
0.243587
-0.0470288
-0.257939
0.155994
0.0540408
-0.403767
0.0724055
0.537751
0.0754509
-0.251194
0.112108
0.527155
0.123328
-0.631176
-0.043426
0.170152
-1.39153
-1.40013
1.53958
2.41332
-0.526122
-1.51493
0.551261
1.38806
0.345871
0.419457
1.35421
0.724653
-0.954619
-1.16131
-0.263367
0.0887005
-0.771816
-1.49299
-1.44071
-0.846495
-0.502096
1.16284
1.58278
-1.32194
-2.75466
-2.05433
-0.869188
-0.079922
-0.11218
0.0210165
-0.397405
-0.959237
-0.791793
-0.186058
0.125301
1.70985
3.85503
3.86064
0.373134
-4.55824
-1.16948
4.10581
0.022462
-3.11766
-1.8083
-0.374743
1.28792
0.828896
-0.512355
0.0368786
0.939161
-0.0903552
-0.908742
-0.115415
0.103617
-0.170157
0.014013
0.282366
0.230157
-0.682826
2.54431
5.93266
2.67905
-1.98625
-3.56501
-1.26959
0.104672
-0.0118628
0.229263
-0.149972
-0.171492
0.174727
0.110256
-0.191276
-0.0684611
0.157039
0.0024117
-0.137053
-0.0108456
0.0687565
0.0101704
-0.0637103
-0.0550107
0.12446
0.0945325
-0.17102
0.0347874
0.24291
-0.277421
-0.320624
0.233909
0.160768
0.137979
0.484117
0.026405
-0.707933
-0.25614
0.712012
-0.536417
-0.857474
1.83004
2.40525
-0.356026
-2.53254
-1.4526
0.999712
0.105619
-2.13782
-1.47076
1.11263
1.46432
-1.1978
-2.37357
-0.647192
1.30593
1.39781
1.41082
1.48145
0.572196
-0.0847243
1.69057
1.9867
-0.151999
-0.19053
0.643864
0.508296
0.00664201
-0.75602
-0.464123
0.161418
0.720525
0.910549
0.736802
-1.25791
-2.79111
-2.76874
-2.55844
-2.2955
-2.77237
1.47924
7.18673
2.75983
-2.41791
-1.33531
0.756823
1.95394
0.175625
-2.0995
-1.08777
1.13538
0.0932565
-1.37704
0.0249051
0.298944
-0.400901
0.246739
0.212132
0.0973253
0.332844
-0.751669
2.81778
6.85402
3.15973
-2.00595
-3.86645
-1.57743
0.357129
0.197612
-0.0934147
-0.278371
0.209661
0.219518
-0.281699
-0.152924
0.298197
0.0603388
-0.307064
-0.0116508
0.234796
-0.0618339
-0.211465
0.0509471
0.176783
-0.04623
-0.182436
0.149073
0.280305
-0.213139
-0.204607
0.221686
-0.305755
-0.498835
0.478962
0.863627
0.00255933
-0.518454
0.33856
0.937806
0.0224824
-0.956312
0.119392
-0.563176
-3.411
-1.93731
3.03631
3.20677
0.24474
-0.144278
1.40315
1.83031
-0.611438
-1.57396
0.892078
3.05473
2.77825
0.374725
-1.48157
-1.3497
-0.429993
0.128635
-1.65512
-2.5071
-0.422909
0.983644
1.17831
1.46598
0.705582
0.723545
0.499507
0.202073
0.494071
1.27799
1.47663
2.0813
4.84996
4.29699
0.647333
-3.81099
-2.75347
2.8583
-0.121152
-4.51576
-3.00278
-0.482311
2.60289
1.96108
-1.08868
-0.614248
2.48889
1.04606
-2.57452
-0.648367
0.896694
-0.884072
-0.339788
0.502356
0.243166
0.462432
-0.0292654
-1.16052
3.7035
8.18989
3.64135
-2.07818
-3.91722
-1.115
0.592209
-0.343149
-0.128582
0.301656
0.0611499
-0.333521
0.0284854
0.319064
-0.113835
-0.27753
0.143317
0.171181
-0.191
-0.112916
0.129032
0.0115973
-0.0921113
-0.0218964
0.0418869
0.122786
-0.000712129
-0.0702779
0.207208
-0.00510611
-0.554456
-0.138601
0.222658
0.198939
1.03902
0.449516
-1.11918
-1.11194
0.184697
1.09699
-1.69341
-1.43033
4.36415
5.32226
0.19912
-4.00711
-2.94683
1.80995
2.53544
-1.12985
-2.95069
-1.01361
-0.190759
-0.998579
-0.890642
-0.699148
-1.98677
-2.75114
-1.35163
-1.29566
-0.525107
0.84087
-1.19066
-3.13128
-3.14812
-3.10782
-1.64656
-0.556301
-0.965144
-1.33069
-1.5317
-3.5161
-4.57335
-2.30108
-1.77805
-1.32654
1.19169
3.5751
6.75913
4.0155
-1.80734
-1.59661
0.440694
2.05203
0.347383
-3.59267
-2.83378
2.24302
1.54189
-3.65325
-0.677182
2.4392
-1.46862
-0.631377
1.28093
-0.451408
0.258082
0.818729
-0.490277
-1.35602
4.3744
9.30573
4.22073
-2.1371
-3.77012
-1.09232
0.221432
-0.267442
0.243136
0.107004
-0.279673
-0.0358015
0.31688
-0.0435375
-0.325676
0.103267
0.277685
-0.163363
-0.245008
0.137166
0.124161
-0.161295
-0.114785
0.0982055
0.121096
-0.0932629
-0.115319
0.320508
0.244353
-0.334287
-0.18749
-0.0339332
-0.648142
-0.320246
1.16713
1.42175
-0.792257
-0.800407
1.23299
0.95122
0.508362
0.63363
-0.198297
-3.13585
-6.67753
-4.43673
2.09677
4.14895
2.22866
0.900027
-0.44608
-1.76251
-3.2467
-4.23597
-1.0851
2.71737
5.20462
4.72529
3.06653
3.83712
5.37787
4.2006
2.59369
2.82633
2.33692
2.40768
1.95631
1.18541
1.78987
2.46413
3.06869
2.00502
2.72111
1.8206
-0.946369
-2.15942
-5.04996
-3.64956
-1.23765
-3.39901
-2.66326
0.506835
3.63422
2.9339
-0.268071
-0.586599
3.44357
2.92869
-4.38698
-2.41217
3.05744
-2.16907
-2.16768
2.34943
-0.389817
0.0057481
1.24868
-0.590137
-0.839014
-0.888163
5.2464
10.4709
4.82917
-2.12833
-3.97648
-1.62797
0.22145
0.241378
0.0434323
-0.378351
0.115664
0.372717
-0.236965
-0.329231
0.330352
0.253601
-0.387891
-0.174842