# vtk DataFile Version 3.0
fluid_state
ASCII
DATASET RECTILINEAR_GRID
DIMENSIONS 100 100 1
X_COORDINATES 100 double
0 1 2 3 4 5 6 7 8 9 10 11 12 13 14 15 16 17 18 19 20 21 22 23 24 25 26 27 28 29 30 31 32 33 34 35 36 37 38 39 40 41 42 43 44 45 46 47 48 49 50 51 52 53 54 55 56 57 58 59 60 61 62 63 64 65 66 67 68 69 70 71 72 73 74 75 76 77 78 79 80 81 82 83 84 85 86 87 88 89 90 91 92 93 94 95 96 97 98 99 
Y_COORDINATES 100 double
0 1 2 3 4 5 6 7 8 9 10 11 12 13 14 15 16 17 18 19 20 21 22 23 24 25 26 27 28 29 30 31 32 33 34 35 36 37 38 39 40 41 42 43 44 45 46 47 48 49 50 51 52 53 54 55 56 57 58 59 60 61 62 63 64 65 66 67 68 69 70 71 72 73 74 75 76 77 78 79 80 81 82 83 84 85 86 87 88 89 90 91 92 93 94 95 96 97 98 99 
Z_COORDINATES 1 double
0
POINT_DATA 10000
SCALARS vorticity float 1
LOOKUP_TABLE default
0.0024872
-0.0551662
-0.121148
-0.223363
-0.325793
-0.425372
-0.525973
-0.622324
-0.713604
-0.812549
-0.914274
-0.998948
-1.0818
-1.18482
-1.2724
-1.33217
-1.41598
-1.51307
-1.55938
-1.60121
-1.69238
-1.74823
-1.74466
-1.80238
-1.88922
-1.8747
-1.85736
-1.95486
-1.99006
-1.90135
-1.91836
-2.02503
-1.95891
-1.84639
-1.92611
-1.9745
-1.81114
-1.74878
-1.8564
-1.78925
-1.59852
-1.62125
-1.6755
-1.50152
-1.37301
-1.44445
-1.38272
-1.17515
-1.14824
-1.18924
-1.0193
-0.863758
-0.9034
-0.855977
-0.648423
-0.580509
-0.61171
-0.482706
-0.314373
-0.302432
-0.275381
-0.124196
-0.0221305
-0.00640819
0.068733
0.184676
0.249151
0.299082
0.372548
0.442538
0.511836
0.572718
0.605085
0.659814
0.739938
0.761467
0.75537
0.823965
0.880248
0.841103
0.832336
0.906585
0.898477
0.822876
0.835777
0.869773
0.776532
0.699915
0.721005
0.669078
0.509494
0.461308
0.458647
0.308684
0.131882
0.124998
0.025391
-0.258426
-0.241606
-0.0692447
0.0173651
-0.204493
-0.333996
-0.486717
-0.58561
-0.778774
-1.03982
-1.16893
-1.30016
-1.54338
-1.7191
-1.84291
-2.04116
-2.22011
-2.34077
-2.53471
-2.68876
-2.76579
-2.94404
-3.13686
-3.13265
-3.22153
-3.4836
-3.51657
-3.4032
-3.6477
-3.88225
-3.68322
-3.62905
-4.02692
-4.05199
-3.69822
-3.84084
-4.22702
-3.95218
-3.6383
-3.96732
-4.13714
-3.66376
-3.54497
-3.88726
-3.77281
-3.30646
-3.37068
-3.56295
-3.26086
-2.91507
-3.05513
-3.07479
-2.69018
-2.45327
-2.62207
-2.5121
-2.06608
-1.93003
-2.14838
-1.89491
-1.38769
-1.42831
-1.67062
-1.19642
-0.728707
-1.02488
-1.1411
-0.438908
-0.20794
-0.69665
-0.498564
0.264924
0.107348
-0.349503
0.225858
0.759874
0.241047
0.0925867
0.886777
0.938631
0.316468
0.614498
1.28201
0.840114
0.488079
1.08123
1.3029
0.643455
0.747363
1.26281
0.990985
0.448728
0.874211
1.03896
0.517651
0.242897
0.7133
0.528628
-0.0124979
-0.179691
0.455246
0.62804
-0.0486781
-0.030018
-0.288632
-0.151635
-0.100964
-0.319932
-0.336753
-0.230618
-0.401371
-0.601828
-0.490572
-0.453472
-0.739822
-0.810871
-0.619164
-0.758596
-1.05739
-0.915479
-0.801732
-1.13719
-1.25397
-0.964466
-1.10902
-1.47388
-1.26377
-1.0428
-1.49133
-1.6355
-1.1507
-1.24679
-1.85387
-1.58011
-1.06153
-1.58665
-2.03782
-1.33275
-1.11468
-1.94349
-1.92652
-1.04919
-1.35079
-2.10723
-1.5496
-0.929668
-1.64929
-1.9315
-1.10426
-1.03544
-1.79429
-1.48372
-0.799492
-1.23099
-1.66563
-0.963166
-0.692101
-1.33176
-1.30521
-0.551588
-0.704704
-1.2407
-0.866368
-0.320806
-0.70245
-0.982801
-0.498257
-0.20875
-0.596255
-0.680765
-0.251054
-0.102268
-0.421015
-0.455549
-0.0578527
0.0479978
-0.291296
-0.307876
0.162786
0.166692
-0.255401
-0.132618
0.395728
0.143149
-0.244103
0.147847
0.540054
-0.0565218
-0.172817
0.470315
0.465086
-0.336861
0.0603392
0.682114
0.143733
-0.452772
0.450955
0.607465
-0.308342
-0.261899
1.2034
0.956931
-0.226851
-0.153905
-0.402842
-0.101854
0.189305
-0.0336601
-0.00738417
0.226127
0.103163
-0.0194081
0.192753
0.24031
0.0591872
0.153133
0.292256
0.155994
0.15161
0.313976
0.217972
0.145097
0.33196
0.294015
0.10666
0.307901
0.442041
0.141617
0.16606
0.561311
0.379627
0.0151182
0.395826
0.68961
0.173178
0.0565757
0.663582
0.593332
-0.00452854
0.272701
0.786891
0.356053
-0.0137158
0.512042
0.700472
0.146249
0.119513
0.64043
0.49719
0.0328283
0.284765
0.655017
0.276458
-0.011521
0.426223
0.599962
0.0597132
-0.0159669
0.554343
0.478748
-0.165419
0.0564056
0.668954
0.243331
-0.343623
0.253898
0.680264
-0.0932711
-0.352736
0.508823
0.4924
-0.402493
-0.137868
0.6633
0.116569
-0.520032
0.224531
0.580719
-0.303538
-0.353008
0.529309
0.237376
-0.515608
0.0369683
0.54549
-0.186933
-0.36507
0.361277
0.224162
-0.424145
-0.0297555
0.387957
-0.119874
-0.350953
0.194501
0.219777
-0.228219
-0.170519
0.11149
0.0628887
0.352838
0.182655
-0.0981708
-0.264751
-0.504635
-0.318891
-0.0583078
0.109948
0.0501514
-0.177423
-0.0500456
0.144654
-0.0723466
-0.198795
0.06555
0.0859765
-0.201413
-0.118974
0.124493
-0.0740946
-0.246647
0.00804087
0.0467011
-0.241676
-0.161491
0.0721625
-0.139273
-0.282427
0.0261591
0.0371048
-0.315679
-0.163979
0.185841
-0.122027
-0.406583
0.0460468
0.21338
-0.334386
-0.332862
0.26798
0.0771777
-0.493691
-0.104256
0.370418
-0.182842
-0.471923
0.183686
0.248792
-0.41664
-0.230291
0.356461
-0.0439469
-0.469361
0.0998496
0.313223
-0.338525
-0.316058
0.341881
0.0875532
-0.488128
-0.0468574
0.385108
-0.186295
-0.427705
0.188424
0.240541
-0.346037
-0.22452
0.264939
0.038431
-0.317627
-0.0376039
0.185745
-0.061621
-0.18039
0.00987104
0.073475
-0.0197252
-0.0778716
-0.0394715
0.0552585
0.0629443
-0.080941
-0.0389134
0.161327
0.0482317
-0.175614
0.0783069
0.258182
-0.148446
-0.227412
0.294978
0.178955
-0.360416
-0.0190959
0.423952
-0.165343
-0.32176
0.340429
0.0245748
-0.0815408
0.233763
0.099662
-0.362851
-0.723618
-0.331473
0.0181574
0.0444856
0.0410669
-0.0492419
0.0225603
0.0633571
-0.0291884
0.0133522
0.0743763
-0.0234494
-0.000295902
0.109187
-0.012753
-0.0678264
0.126663
0.0631999
-0.151271
0.0418762
0.184044
-0.138199
-0.143756
0.24426
0.0720234
-0.297072
0.0861836
0.37075
-0.178632
-0.293018
0.365759
0.25629
-0.416569
-0.0681789
0.516965
-0.0483308
-0.453195
0.25025
0.415144
-0.32641
-0.249561
0.425164
0.137876
-0.39968
0.026912
0.389345
-0.120209
-0.304994
0.225683
0.252014
-0.275417
-0.167552
0.332031
0.112531
-0.366386
-0.0383102
0.406493
-0.0339276
-0.441547
0.129976
0.450322
-0.242566
-0.440464
0.365192
0.379026
-0.477955
-0.2762
0.57928
0.125547
-0.624763
0.0620833
0.637435
-0.261023
-0.560487
0.446292
0.425764
-0.580199
-0.204046
0.652637
0.00101292
-0.567859
0.282636
0.469938
-0.429933
-0.26055
0.54461
0.0702557
-0.546086
0.112488
0.483771
-0.243877
-0.360507
0.304817
0.21839
-0.294109
-0.247032
1.04861
1.08272
0.0133355
-0.482395
-1.01626
-0.242146
0.273973
-0.167624
-0.101299
0.186666
0.0316127
-0.194973
0.0414299
0.174935
-0.107266
-0.121954
0.15562
0.0515867
-0.170563
0.0204038
0.1305
-0.105353
-0.0971759
0.105349
-0.0251947
-0.158375
0.0375521
0.0419321
-0.174535
-0.0322475
0.168924
-0.0898303
-0.202715
0.159135
0.163476
-0.245377
-0.117017
0.288918
0.0386797
-0.31446
0.0561072
0.324004
-0.142169
-0.283223
0.247954
0.229372
-0.308732
-0.107284
0.364692
-0.0109881
-0.347524
0.165017
0.30489
-0.280952
-0.202692
0.390046
0.0777203
-0.44227
0.0717197
0.449941
-0.234045
-0.400473
0.359477
0.288243
-0.477974
-0.154972
0.500524
-0.0186858
-0.500536
0.155834
0.401624
-0.267324
-0.28523
0.316046
0.12187
-0.304338
0.0122877
0.240649
-0.134771
-0.142121
0.197476
0.066612
-0.148538
0.091797
0.142101
-0.0782722
0.037512
0.137816
-0.130303
-0.0552463
0.248838
-0.0271214
-0.223386
0.163208
0.151859
-0.241293
0.0190983
0.237235
-0.108511
-0.387347
0.996788
1.08801
-0.050222
-0.603964
-1.09596
-0.343055
0.0966884
-0.0410034
0.0386641
-0.00295512
-0.0410188
0.0449569
0.0489539
-0.0756816
-0.0100163
0.125758
-0.0290411
-0.117267
0.120416
0.100428
-0.177067
-0.0182041
0.210513
-0.0934212
-0.204516
0.173104
0.0890152
-0.303764
-0.0201134
0.299707
-0.153011
-0.298297
0.305355
0.250349
-0.411292
-0.123725
0.497928
-0.0233589
-0.503039
0.203823
0.446738
-0.353152
-0.313832
0.46157
0.152411
-0.474987
0.0275241
0.436871
-0.164815
-0.327659
0.272566
0.216365
-0.325346
-0.090952
0.34208
-0.00876182
-0.338697
0.0883306
0.315193
-0.150956
-0.312997
0.19664
0.28152
-0.264476
-0.290923
0.313116
0.234435
-0.397366
-0.205317
0.453313
0.0980227
-0.52152
0.000695856
0.557879
-0.163227
-0.570867
0.292166
0.49797
-0.471232
-0.387989
0.571444
0.219847
-0.575034
0.0789905
0.580862
-0.277086
-0.444162
0.482947
0.292964
-0.578329
-0.108698
0.58712
-0.0564247
-0.53292
0.229882
0.408538
-0.351394
-0.300199
0.564044
-0.062502
0.158079
0.70037
0.132676
-0.69955
-1.2293
-0.564736
-0.072455
0.137107
0.122532
-0.185711
-0.0301442
0.182548
-0.0410859
-0.14433
0.102674
0.092185
-0.121431
-0.00870491
0.125902
-0.0453035
-0.0713226
0.0872668
-0.00101196
-0.0966109
0.0543895
0.0272283
-0.144621
-0.00989207
0.0904629
-0.156121
-0.133788
0.208738
0.0672031
-0.279725
0.0169136
0.318047
-0.0928039
-0.290226
0.181345
0.249253
-0.228655
-0.162566
0.291818
0.112175
-0.296663
-0.00787809
0.3231
-0.0644029
-0.281305
0.183323
0.234418
-0.259683
-0.131452
0.346594
0.0188794
-0.383409
0.119077
0.398812
-0.274388
-0.365199
0.41086
0.271834
-0.558962
-0.142152
0.62291
-0.0491569
-0.67102
0.234496
0.599846
-0.411347
-0.483081
0.536049
0.273583
-0.590418
-0.0618326
0.564311
-0.187978
-0.490534
0.335889
0.350696
-0.406257
-0.0926157
0.48733
0.00160471
-0.302819
0.24463
0.162175
-0.32636
0.0751783
0.370621
-0.206241
-0.245073
0.310419
0.0691269
-0.27089
0.0897832
0.225353
-0.221155
0.0147021
0.0489821
0.75905
1.09089
0.202702
-0.796375
-1.56775
-0.543984
0.252003
-0.0469731
-0.107834
0.0707373
0.0952612
-0.119099
-0.0540409
0.160471
-0.00179425
-0.174429
0.0885531
0.169692
-0.154695
-0.0905324
0.231747
-0.000427025
-0.234015
0.119324
0.177066
-0.227238
-0.0969343
0.229109
-0.105796
-0.297809
0.177507
0.190371
-0.320649
-0.0878492
0.440223
-0.00477489
-0.463594
0.153052
0.445604
-0.292559
-0.347007
0.420231
0.194276
-0.478228
-0.00249223
0.46642
-0.160012
-0.35366
0.292988
0.220206
-0.342397
-0.0479416
0.350662
-0.083863
-0.300649
0.202306
0.229363
-0.266614
-0.162259
0.291241
0.0760099
-0.311152
-0.0547335
0.28843
-0.015187
-0.299895
0.0174504
0.28487
-0.0841857
-0.305219
0.105538
0.329345
-0.174579
-0.372667
0.194636
0.358014
-0.327117
-0.37818
0.362229
0.309256
-0.382595
-0.0626049
0.484737
-0.08617
-0.461426
0.306546
0.410549
-0.438843
-0.313071
0.497172
0.197715
-0.487429
-0.0246572
0.457445
-0.132854
-0.447229
0.358516
0.335302
-0.422583
-0.399877
1.70721
1.8011
0.0633775
-0.926433
-1.77039
-0.474276
0.331049
-0.181232
-0.0810293
0.164577
0.00681633
-0.138064
0.056273
0.0851907
-0.0901171
-0.0228517
0.0929163
-0.0323924
-0.0430385
0.0952866
0.00289163
-0.0796256
0.0836905
0.0425992
-0.13779
0.0282979
0.132429
-0.154455
-0.150497
0.162409
-0.0309607
-0.335136
0.079013
0.358837
-0.18781
-0.327232
0.316751
0.277141
-0.361449
-0.143357
0.389227
0.0372771
-0.336622
0.0928681
0.315876
-0.138678
-0.231815
0.222206
0.176358
-0.246808
-0.066155
0.297118
-0.0237308
-0.286692
0.146229
0.292208
-0.260931
-0.257876
0.374304
0.193756
-0.518961
-0.108716
0.596901
-0.0555945
-0.698337
0.226724
0.680397
-0.425375
-0.619157
0.606016
0.42598
-0.742495
-0.205192
0.800624
-0.112251
-0.831456
0.292456
0.69582
-0.492944
-0.418325
0.711582
0.306479
-0.591345
0.0878949
0.497645
-0.370664
-0.27804
0.647467
0.104328
-0.634215
0.160705
0.492104
-0.328588
-0.264893
0.454858
0.0302548
-0.372866
0.156889
0.401156
-0.612225
0.927968
1.63152
0.118745
-1.04898
-1.77193
-0.605884
-0.0131068
0.0125288
0.184985
-0.122059
-0.140121
0.178155
0.0712456
-0.216462
0.0122513
0.215934
-0.104047
-0.177213
0.198287
0.111612
-0.222917
0.0347757
0.237778
-0.132827
-0.147927
0.21206
0.0216147
-0.235439
0.068797
0.0978625
-0.281256
-0.0976325
0.280924
-0.0629508
-0.313472
0.223945
0.375263
-0.283081
-0.317908
0.368821
0.21895
-0.426712
-0.0626687
0.438063
-0.113487
-0.364843
0.271063
0.241292
-0.336767
-0.048886
0.355334
-0.0990676
-0.274497
0.256066
0.176314
-0.329751
-0.0436991
0.363218
-0.104671
-0.362782
0.177023
0.282594
-0.298551
-0.235884
0.307911
0.130348
-0.379639
-0.0724504
0.362986
0.034906
-0.355815
-0.0330842
0.25677
0.00861544
-0.294538
-0.132048
0.169231
0.156551
-0.0890014
0.0427965
0.239327
-0.0522775
-0.29618
0.165914
0.328954
-0.265206
-0.389499
0.27032
0.348727
-0.198839
-0.199626
0.24753
0.13405
-0.355162
0.0115532
0.420618
-0.167804
-0.467439
0.521984
-0.057579
0.604527
1.45881
0.337382
-1.13808
-2.05649
-0.817692
0.0857849
0.0919662
0.0280511
-0.121749
0.0485529
0.0700927
-0.0903172
-0.00712261
0.0853326
-0.0674031
-0.0536856
0.110025
-0.00795542
-0.111175
0.11505
0.113025
-0.146778
0.00370196
0.193508
-0.10842
-0.162408
0.20348
0.0567767
-0.321812
-0.0157455
0.220735
-0.288139
-0.340235
0.394743
0.319505
-0.468255
-0.17786
0.551631
0.0625399
-0.478617
0.109661
0.387951
-0.186312
-0.224768
0.273046
0.141709
-0.245223
-0.00791337
0.263852
-0.0598117
-0.198739
0.168575
0.180136
-0.218991
-0.111162
0.284097
0.0642562
-0.372628
-0.0247748
0.415123
-0.0831191
-0.535455
0.178859
0.557821
-0.329012
-0.56796
0.495195
0.433142
-0.674556
-0.264801
0.821078
-0.0446829
-1.00619
0.133142
0.892379
-0.409762
-0.664663
0.785561
0.699299
-0.701623
-0.251289
0.679459
-0.204031
-0.627064
0.681441
0.600018
-0.789858
-0.30095
0.794727
-0.0745812
-0.640032
0.419856
0.433871
-0.488698
-0.155396
0.589881
-0.155432
-0.382988
-0.0384901
1.77096
2.09567
0.299483
-1.24242
-2.4199
-0.782857
0.456149
-0.108982
-0.217129
0.145586
0.163504
-0.213551
-0.0815662
0.234503
-0.0199467
-0.230836
0.107826
0.169933
-0.19059
-0.0761619
0.245702
-0.00753539
-0.169671
0.162874
0.110791
-0.186938
0.0318549
0.160279
-0.140591
-0.0803885
0.12075
-0.199836
-0.280358
0.217205
0.189886
-0.327537
-0.0912739
0.477744
0.132032
-0.457916
-0.0745752
0.422098
-0.0443415
-0.373839
0.1755
0.262855
-0.279996
-0.0865345
0.329601
-0.0668417
-0.250531
0.252846
0.167008
-0.318531
0.0156681
0.382636
-0.191962
-0.377366
0.315734
0.267288
-0.509572
-0.206804
0.540239
0.0268008
-0.660896
0.0924391
0.661992
-0.19104
-0.617491
0.291977
0.449967
-0.411446
-0.435595
0.236545
0.0782065
-0.210307
0.206556
0.479013
-0.0115185
-0.306413
-0.0359144
0.253807
0.0688594
-0.248763
-0.339123
-0.00886798
0.287557
0.20443
-0.0796011
-0.0981526
0.14139
0.0328422
-0.206397
0.182474
0.244633
-0.468926
-0.0133475
0.485512
-0.170681
-0.901064
2.1738
2.81888
0.188679
-1.38339
-2.46919
-0.726821
0.236457
-0.155067
0.071452
0.0686736
-0.12386
-0.00144155
0.134562
-0.094621
-0.102102
0.154601
0.0157463
-0.197073
0.0696763
0.170286
-0.163224
-0.0711086
0.284738
0.0152525
-0.221621
0.165286
0.158758
-0.26722
-0.027681
0.297571
-0.150607
-0.343996
0.173234
0.0641746
-0.554411
-0.113316
0.680292
0.0854118
-0.642229
0.111572
0.612368
-0.192919
-0.388558
0.292266
0.206723
-0.240866
0.0109379
0.244771
-0.0737987
-0.119135
0.195183
0.0900381
-0.188367
0.0311547
0.214802
-0.0670738
-0.198965
0.0887052
0.151222
-0.149393
-0.232237
0.137572
0.230664
-0.197909
-0.294343
0.26026
0.21247
-0.403469
-0.121646
0.59165
-0.109248
-0.934735
-0.0580026
0.749363
-0.250327
-0.548833
0.803684
0.907899
-0.639823
-0.547793
0.637509
0.0255966
-0.78979
0.582563
1.07091
-0.635267
-0.893102
0.68698
0.34977
-0.837111
0.135385
0.867267
-0.318936
-0.510099
0.572909
0.211196
-0.582747
-0.0316487
0.740282
-0.829278
1.12579
2.53735
0.39008
-1.50185
-2.5468
-0.878759
-0.000331677
0.0149682
0.224365
-0.152268
-0.16065
0.201945
0.067388
-0.230171
0.0240259
0.194032
-0.116553
-0.145255
0.160549
0.0399094
-0.192872
0.0736612
0.189049
-0.0966606
-0.00312364
0.184295
-0.0701511
-0.08262
0.169917
-0.0356949
-0.168734
0.127007
-0.0898409
-0.495797
0.0119015
0.493132
-0.0899208
-0.466176
0.244244
0.564806
-0.1582
-0.492351
0.115275
0.34712
-0.18622
-0.220448
0.213635
0.0313584
-0.18525
0.171549
0.135078
-0.246566
0.0584
0.367604
-0.175829
-0.334475
0.338545
0.238104
-0.563738
-0.19974
0.594948
-0.0341007
-0.791788
0.156765
0.847416
-0.253713
-0.79486
0.447349
0.644291
-0.672808
-0.6866
0.433075
0.0859913
-0.515191
0.501954
1.10886
-0.236448
-0.835292
0.213399
0.622958
-0.242794
-0.528676
-0.223858
-0.209177
-0.0276422
0.602633
0.390175
-0.351469
-0.271373
0.362907
0.0349076
-0.242648
0.40954
-0.0202428
-0.529315
0.378405
0.325961
-0.770842
0.179098
0.0483426
1.52849
2.57675
0.581427
-1.59026
-2.96868
-1.07976
0.352442
0.0274355
-0.148931
-0.0288217
0.192781
-0.0757214
-0.192277
0.171279
0.117559
-0.255938
-0.0056124
0.25928
-0.139524
-0.232515
0.228415
0.109314
-0.283678
0.111227
0.37161
-0.158514
-0.159197
0.290384
-0.0304213
-0.299385
0.203015
0.212248
-0.369003
-0.184968
0.294191
-0.302653
-0.738717
0.295292
0.849179
-0.253824
-0.645198
0.419705
0.51264
-0.33378
-0.192051
0.27174
0.0389082
-0.0528048
0.16384
0.0214802
-0.119606
0.179871
0.184619
-0.180583
-0.0680095
0.2263
-0.0646802
-0.255853
0.0705309
0.134895
-0.182525
-0.118886
0.100167
-0.0125661
-0.226209
-0.0626892
0.242908
0.219545
-0.38201
-0.75627
-0.273823
0.339628
0.0617163
0.105694
0.857836
0.661003
-0.561763
-0.534263
0.367156
0.0479798
-0.630389
0.6613
1.4619
-0.296944
-1.32459
0.137501
0.52014
-0.790925
-0.365423
1.15459
0.187337
-0.783304
0.374308
0.546567
-0.436833
-0.330091
0.591543
0.0685548
-0.543383
-0.616553
2.92926
3.67209
0.438631
-1.7072
-3.19627
-1.0309
0.477659
-0.124249
-0.162757
0.119483
0.112701
-0.173409
-0.0425876
0.168792
-0.0504338
-0.143145
0.107262
0.0653883
-0.144225
-0.00474022
0.110832
-0.113997
-0.0873119
0.195602
0.0647085
-0.0594969
0.169781
0.0512519
-0.143229
0.132525
0.111819
-0.2493
0.0097754
0.143441
-0.594691
-0.498794
0.609263
0.569588
-0.471079
-0.43331
0.535504
0.52065
-0.359076
-0.48617
0.151121
0.271943
-0.156436
-0.13998
0.0236017
-0.0560676
0.132137
0.251736
-0.170157
-0.230788
0.321855
0.213511
-0.456094
-0.175822
0.473784
-0.0518817
-0.684151
0.14563
0.800778
-0.158061
-0.741677
0.365997
0.638992
-0.706124
-0.996558
0.20949
0.267132
-0.246255
0.84036
1.49647
-0.494303
-1.42467
0.389994
1.03488
-0.630717
-1.02499
-0.159664
-0.305099
-0.504179
0.943049
1.38662
-0.220945
-1.01926
0.158978
0.529167
-0.327814
-0.0123444
0.564927
-0.626247
-0.230434
0.992904
-0.423553
-0.591045
0.612762
0.157344
-1.74363
2.798
4.46027
0.449723
-1.84977
-3.19798
-1.0023
0.130666
-0.13095
0.228185
-0.0166448
-0.256062
0.110977
0.229108
-0.239934
-0.146296
0.315662
-0.00749008
-0.33409
0.163713
0.245981
-0.313743
-0.146651
0.331909
-0.0686727
-0.264306
0.406067
0.302968
-0.333015
0.0227178
0.283306
-0.286129
-0.181615
0.41188
-0.0123434
-0.473291
0.138671
0.309233
-0.84755
-0.904305
0.740809
0.923316
-0.568773
-0.503571
0.642976
0.406983
-0.285602
-0.118609
0.0746646
0.144751
0.311357
0.0866186
-0.229368
0.13569
0.410388
-0.214135
-0.404342
0.306193
0.248604
-0.529816
-0.224541
0.392116
-0.209128
-0.707721
0.190201
0.687514
-0.177792
-0.938989
-0.792429
-0.402474
0.221146
0.769845
1.11817
0.85675
0.00374923
-0.550923
-0.168376
-0.02155
-0.319095
-0.0431334
1.24156
1.54031
-0.0934009
-1.42736
-0.534552
0.249271
-0.787534
-0.878013
1.15348
1.06689
-0.805178
-0.294037
0.798487
-0.204335
-0.260037
0.393183
0.248915
-0.248443
-0.608686
0.763206
-0.763467
1.70707
3.85032
0.783627
-1.96069
-3.46178
-1.16608
0.222503
-0.0301152
0.0839595
-0.0849235
-0.0457052
0.0949924
-0.0175395
-0.103984
0.0702075
0.0456746
-0.114118
0.0182831
0.10218
-0.0914735
-0.0680884
0.106849
-0.0606342
-0.214571
0.103891
0.245954
-0.00871546
0.0950751
0.16298
-0.119158
0.0793211
0.232378
-0.245365
-0.235309
0.304588
-0.334977
-1.24132
0.0702772
1.46508
0.422404
-0.905416
-0.338478
0.743475
0.504275
-0.475788
-0.573498
0.091202
0.33194
-0.0517337
-0.255708
-0.207314
0.0864186
0.295247
-0.0462237
-0.415013
-0.0793849
0.332866
-0.0119537
-0.353394
0.141251
0.517073
-0.0207704
-0.464942
0.0293109
0.179948
-0.733949
-1.26819
-0.1689
0.895466
0.778947
0.990754
1.0536
-0.882005
-1.69942
0.397484
1.14067
-1.05861
-1.47621
-0.134502
-0.564021
-1.03788
1.44971
2.79403
0.684343
-1.81009
-0.888344
1.07577
0.316438
-0.598722
0.2487
-0.449186
-0.936634
1.09182
0.871102
-1.24072
0.367892
0.830084
-1.25458
-0.258796
-0.2023
3.16145
4.44005
0.806368
-2.05625
-3.83318
-1.32417
0.526326
-0.0292206
-0.232941
0.018098
0.263593
-0.135473
-0.25365
0.244455
0.159287
-0.355655
-0.00466441
0.361868
-0.183613
-0.273038
0.32937
0.0964463
-0.443745
0.0198711
0.295689
-0.283174
0.0227748
0.747367
0.0115026
-0.484922
0.266373
0.172158
-0.589552
-0.0376242
0.639226
-0.206516
-0.344232
0.696202
0.124113
-1.63539
-1.18617
0.950807
0.937175
-0.707451
-0.334439
0.735796
0.549605
-0.0937293
-0.376431
-0.110013
0.73421
0.710315
-0.43772
-0.660189
0.516376
0.592989
-0.596558
-0.414209
0.518055
-0.239551
-1.13108
0.114853
0.990479
-0.386413
-1.55719
-0.926638
0.198226
1.20116
1.78998
1.75141
0.535389
-0.77442
-0.561594
0.335236
-0.244339
-0.640551
0.865819
2.21594
1.0943
-0.570077
-1.13317
-1.2189
-0.771334
-1.09205
-1.62212
1.41791
2.58661
-0.183546
-1.1737
0.163379
0.268526
-0.200528
0.272733
-0.0730125
0.108323
0.126523
-0.2542
0.656843
-0.529027
-2.15069
5.08961
6.26348
0.492066
-2.17902
-3.90264
-1.29492
0.329241
-0.0979782
0.0419486
0.0112304
-0.0556072
-0.026211
0.0702774
-0.00191672
-0.107221
0.0364031
0.112565
-0.128278
-0.0744389
0.18672
-0.0106996
-0.186065
0.0928384
0.0862975
-0.336369
-0.197295
0.33186
0.284514
0.112015
0.138761
-0.118633
0.0372516
0.597546
-0.18336
-0.832719
0.300075
0.483832
-1.52787
-1.86625
1.14166
2.71568
0.424821
-1.58455
-0.494753
1.12656
0.775959
-0.588844
-0.697747
0.297587
0.765939
-0.0142319
-0.780278
-0.718755
-0.182352
-0.0834544
-0.177995
0.0307865
0.23739
0.0231717
-0.203496
-0.288949
-0.576613
-0.774647
-0.765272
-0.800548
0.23579
1.80407
1.45276
0.158534
-0.509141
-1.43244
-1.36637
0.320841
0.791632
-1.24614
-1.56024
-0.159604
-0.631738
-1.15562
2.42239
4.30779
1.65481
-2.04622
-2.87429
1.02031
2.06659
-1.0829
-0.475582
-0.87898
-1.42685
0.873783
1.68602
-1.13051
-0.889855
2.24971
-0.591997
-1.40129
0.72003
0.243024
-2.33689
4.2979
6.77743
0.61465
-2.31005
-4.05328
-1.30238
0.220855
-0.136384
0.207244
-0.0200884
-0.237087
0.0946669
0.226806
-0.222485
-0.17005
0.315927
0.0184453
-0.368512
0.174554
0.279208
-0.329234
-0.0754448
0.408696
-0.169298
-0.498047
0.186941
0.10311
-0.363319
0.708001
0.970311
-0.665681
-0.545613
0.569948
-0.0296007
-1.01621
0.00636025
1.00523
-0.0714675
0.373193
1.56342
-0.57794
-2.68653
-1.58178
0.588868
0.61906
-0.744876
-0.404455
0.718355
1.20077
0.461568
-0.720191
-0.657058
0.455949
0.213649
-0.702009
-0.229899
0.853233
0.0827161
-1.07816
0.0982644
1.40906
0.102966
-1.42256
-0.267102
1.97483
2.86875
1.89576
1.00663
-0.158701
-1.17092
-0.344476
0.79884
-0.153238
-0.640022
1.54166
2.73555
0.370028
-1.7495
-1.2032
-1.53147
-2.61364
-1.7609
-1.8525
1.40824
4.89559
0.903028
-1.46643
-0.404256
0.0757631
1.39849
-0.286619
-1.28766
-0.783832
1.2924
-0.280018
-0.971535
1.73534
-1.60056
0.660309
-0.224585
2.58763
6.01206
0.943348
-2.4163
-4.37457
-1.40022
0.515547
-0.119281
-0.120232
0.0315629
0.123899
-0.0696121
-0.130503
0.0800611
0.126777
-0.136213
-0.123867
0.19755
0.0541488
-0.282568
0.0820604
0.286904
-0.189192
-0.139659
0.234659
-0.201479
-0.636108
0.0335055
0.582164
0.542174
0.301083
-0.361316
-0.27844
0.738665
1.03017
-1.0408
-1.4522
1.25351
0.540313
-3.56666
-3.12725
2.1419
4.86909
1.43859
-2.49994
-1.30702
1.79923
1.56185
-0.381951
-0.144431
1.56982
1.17742
-1.41781
-1.92347
0.123774
0.897708
-0.568186
-1.09562
-0.6253
-1.03674
-1.62484
-0.36306
0.650659
1.06193
1.17794
-0.371842
-1.457
-1.77198
-1.32463
-0.116288
0.397113
0.159451
-1.01779
-0.954185
0.0256143
0.121042
0.0630394
3.31647
5.44701
2.07366
-2.14994
-3.89575
-0.590005
3.08344
-0.944298
-2.16184
-1.14498
-2.47482
1.74426
3.57386
-1.73536
-1.86377
2.08981
1.99282
-3.8376
0.174526
1.50077
-1.84304
0.776483
-1.24414
5.77937
7.29818
0.707711
-2.51267
-4.54029
-1.57493
0.435645
-0.0241138
-0.0805581
-0.0477582
0.138174
-0.040693
-0.178067
0.120882
0.147758
-0.244697
-0.0490218
0.302902
-0.137821
-0.270703
0.31461
0.0830743
-0.356313
0.232182
0.342252
-0.558681
-0.520223
0.328765
-0.125682
-0.0643667
1.84143
0.566227
-1.77079
-0.133958
0.541496
-0.379011
-1.00114
-0.535869
0.803293
1.30299
2.57047
2.77441
-1.48865
-4.11295
-2.13875
0.141972
-0.241709
-1.2248
-0.643363
1.19825
1.47545
-0.835958
-2.56033
-1.19297
1.30128
0.913633
-0.35071
0.560523
1.87363
0.820989
-0.618353
0.18606
2.56223
2.13987
-0.311869
-0.173506
-0.16771
-0.989857
-0.307767
0.346067
-0.427632
-0.676603
1.28429
2.01248
-0.753355
-3.4751
-2.34634
-1.25044
-3.21635
-2.35194
-0.00780989
2.30352
5.75683
3.40181
-1.50575
-1.313
-0.844944
2.07549
2.27199
-3.87545
-2.36048
2.75113
0.309031
-3.25829
0.232704
2.74326
-4.0262
2.45224
0.842473
-4.61469
9.5605
8.29072
0.253419
-2.62203
-4.65681
-1.60064
0.265327
-0.0513478
0.174305
-0.0976893
-0.169648
0.114302
0.145967
-0.160093
-0.138435
0.180989
0.11716
-0.261145
-0.0574286
0.328796
-0.101356
-0.35203
0.318824
0.275084
-0.328504
0.0638337
0.0921141
-0.849058
-0.627875
0.577577
0.883021
1.11992
-0.219486
-1.2114
0.527558
1.2198
1.4532
-0.843397
-2.41473
1.85724
1.18455
-6.70528
-6.9495
1.64705
7.35714
3.92886
-2.44036
-2.28935
2.59273
2.82512
-1.39942
-2.34741
2.04024
3.97871
1.51167
-0.435312
-0.060629
-0.743577
-2.07544
-0.726569
1.33674
0.854256
-1.91934
-1.85852
0.52675
0.514666
0.411782
1.81157
0.906274
-0.0792371
0.00780964
0.630297
0.757366
1.24985
2.07536
3.65007
4.97308
1.38036
-2.33835
-2.89961
-2.26965
0.24869
-0.801369
-2.8563
-2.64703
-1.3257
2.5349
5.66722
-0.890327
-4.63059
4.08825
4.17352
-3.94241
-3.93308
3.43666
-1.6617
-2.08382
2.82781
-1.10753
-2.63053
8.28382
9.5339
-0.0678751
-2.74014
-4.92574
-1.48321
0.539231
-0.25467
-0.015337
0.120504
-0.0421456
-0.0919122
0.0812357
-0.00726932
-0.121124
0.0978348
0.0758346
-0.213052
0.0690821
0.205636
-0.262543
-0.0831067
0.356604
-0.14778
-0.184366
0.61164
-0.0441557
-1.21699
-0.348453
0.711203
-0.227461
0.649115
2.80438
-0.909543
-2.29103
0.699429
-0.704733
-0.592961
0.26364
-2.63829
-1.7314
3.88271
7.50215
6.1563
-0.801439
-6.03883
-2.49911
2.23644
0.98979
-1.36487
-1.96243
-0.336182
0.163821
-0.494785
-0.524952
0.707429
0.701646
-1.65906
-2.78623
-1.76536
-0.405738
-0.912239
-0.883497
0.251993
-1.43681
-3.04317
-2.11633
-1.52208
-1.30355
-0.814449
-0.179247
-0.438355
-2.42718
-4.88722
-3.68581
-0.106889
-0.661466
-0.308513
3.74403
5.07262
4.00518
3.74476
0.0463376
-3.08932
-1.77189
1.75373
0.399003
-3.64947
-5.66224
4.17829
4.49162
-6.44083
-2.07102
4.50009
-3.44814
-5.90912
7.4302
-3.63577
-0.83364
1.34157
6.84122
13.2639
-1.45606
-2.83237
-5.05516
-1.60565
0.534793
-0.154835
-0.084637
0.0641402
0.116073
-0.131879
-0.129594
0.158974
0.102384
-0.21057
-0.102198
0.247007
0.0746849
-0.351806
0.0740754
0.37167
-0.333898
-0.274649
0.596622
0.223397
-0.34094
0.0889161
-0.680052
-1.31401
0.273831
1.13556
0.862756
1.24932
-1.34761
-1.03878
1.68993
0.766261
2.29021
1.29641
-1.76587
3.31641
2.50646
-10.3087
-14.5516
-4.01752
6.89713
5.94314
-0.751862
-2.59589
0.155554
0.0215862
-3.95305
-4.75519
0.850227
2.8301
0.904025
1.43722
4.32084
2.76294
-0.0135672
2.8184
5.58247
2.93002
1.08555
2.85289
1.81662
0.441061
1.29059
2.28359
1.67235
1.55074
3.32598
2.44277
0.83578
-1.29823
-3.18008
-1.98112
-4.70764
-4.34535
-0.384801
-0.978478
-1.79235
0.776419
4.80185
4.06
1.69328
-0.0133174
1.35152
6.84409
-5.64064
-4.85847
5.31323
-0.485653
-6.8819
1.52204
-1.07671
-4.27409
1.79327
-2.14127
17.3321
12.8032
-3.10076
-2.90148
-5.17229
-1.92254
0.26591
0.112218
0.126509
-0.258847
-0.03429
0.219499
-0.0409697
-0.17568
0.0708143
0.0502561
-0.103539
0.0609636
0.0266038
-0.153289
0.176517
0.0351991
-0.321725
0.13818
0.2713
-0.240339
0.273752
0.799281
-1.31206
-1.79686
1.09905
1.14236
-0.760037
1.01648
2.9502
-0.930118
-1.77717
0.149722
-2.17597
-1.78781
1.02119
-4.26635
-7.75404
0.425324
11.8991
13.5925
2.87809
-5.97006
-1.88532
5.00376
0.530026
-3.06852
1.75013
4.90294
2.82159
-1.42829
-4.04074
-1.67494
0.0766558
-1.46338
-0.212828
-2.29769
-6.60115
-4.85774
-1.24309
0.0427743
-0.520642
-0.560084
-1.13944
-1.74352
-2.10546
-2.31472
-2.13587
1.80616
4.88434
4.68245
6.7074
5.82468
-0.322371
1.12009
0.688943
-3.92319
-5.11913
-2.5362
-2.18651
-4.84704
-0.823608
1.13624
1.32929
-1.20023
-1.91887
11.1065
-5.03931
-8.51366
3.20578
5.03739
-12.1166
2.71136
-1.14205
-5.79822
26.9667
2.45715
-4.21037
-2.99228
-5.39314
-1.71831
0.517958
-0.183655
0.0230679
0.0292558
-0.0373271
0.0089052
0.0435555
-0.0916197
-0.062167
0.125514
0.046391
-0.199206
-0.0721855
0.278637
0.0238652
-0.401475
0.262146
0.260465
-0.601647
0.0305307
0.960114
0.218877
-0.677287
-0.643444
-0.905564
-0.640188
0.841447
1.01454
0.249198
1.08038
-0.7747
-1.3742
2.02853
2.03444
1.36536
2.59524
5.58603
11.0111
8.04291
-7.85719
-18.4956
-9.58102
3.6819
1.45673
-6.28271
-3.81495
3.38902
1.7271
-3.50628
-1.99113
0.526343
-0.444515
-0.942736
0.432644
0.545028
-0.78931
-0.436675
-0.240119
-1.36184
-2.34899
-0.618602
0.546491
-0.423776
-0.974724
1.02402
-0.931216
-5.24609
-4.12673
-3.26676
-3.84928
-6.14686
-3.60951
3.62713
4.18299
2.45443
4.77572
4.56155
3.87968
1.42743
1.0537
-2.44044
-6.31043
2.74638
-2.17856
-0.988698
1.5871
-6.05902
7.05539
-1.81407
-4.07158
4.31259
-4.91737
-6.52715
4.92247
21.0199
7.1777
-6.32312
-3.08532
-5.48628
-1.53209
0.65716
-0.40199
-0.0573838
0.292834
0.000249895
-0.312039
0.0703566
0.285506
-0.1328
-0.245253
0.122119
0.0818706
-0.108289
0.0576789
-0.0393076
-0.0783008
0.291135
-0.210384
-0.30018
0.31379
0.179548
0.0982151
0.661354
-0.156597
-2.96555
-0.363716
2.68561
-0.0816154
-0.818935
1.05164
3.38221
1.26688
-1.48753
0.946104
-1.01403
-4.29478
-0.437225
-3.86886
-16.1628
-15.2486
4.07745
13.0096
4.33601
-4.24707
-5.04533
2.49105
1.13708
-6.03302
-1.8147
6.57605
6.40528
2.91167
1.83309
-1.5843
1.18264
8.20708
7.40902
5.13809
3.53121
2.86395
2.1681
1.59787
2.63592
3.28438
2.69055
3.93183
8.04297
8.21051
2.76703
-0.755092
-4.50861
-4.12458
-1.6919
-4.90028
-7.76904
-3.28092
-0.0105621
0.170336
0.286698
2.45804
-0.0523386
1.60404
3.81928
-6.87466
0.31037
-0.997255
7.28679
1.14574
-14.4893
-3.65538
20.2879
-17.1019
-7.78506
12.2005
17.162
24.3802
-10.1722
-3.12032
-5.50893
-1.97641
0.321941
0.0799272
0.101764
-0.231905
0.00320818
0.186425
-0.0442215
-0.136384
0.0371424
0.0489877
-0.0519651
0.00047817
0.0282683
-0.154922
-0.0583855
0.322983
-0.055312
-0.389065
0.49673