# vtk DataFile Version 3.0
fluid_state
ASCII
DATASET RECTILINEAR_GRID
DIMENSIONS 100 100 1
X_COORDINATES 100 double
0 1 2 3 4 5 6 7 8 9 10 11 12 13 14 15 16 17 18 19 20 21 22 23 24 25 26 27 28 29 30 31 32 33 34 35 36 37 38 39 40 41 42 43 44 45 46 47 48 49 50 51 52 53 54 55 56 57 58 59 60 61 62 63 64 65 66 67 68 69 70 71 72 73 74 75 76 77 78 79 80 81 82 83 84 85 86 87 88 89 90 91 92 93 94 95 96 97 98 99 
Y_COORDINATES 100 double
0 1 2 3 4 5 6 7 8 9 10 11 12 13 14 15 16 17 18 19 20 21 22 23 24 25 26 27 28 29 30 31 32 33 34 35 36 37 38 39 40 41 42 43 44 45 46 47 48 49 50 51 52 53 54 55 56 57 58 59 60 61 62 63 64 65 66 67 68 69 70 71 72 73 74 75 76 77 78 79 80 81 82 83 84 85 86 87 88 89 90 91 92 93 94 95 96 97 98 99 
Z_COORDINATES 1 double
0
POINT_DATA 10000
SCALARS vorticity float 1
LOOKUP_TABLE default
0.0391352
0.0336714
-0.0303399
-0.218801
-0.369525
-0.418472
-0.510905
-0.663797
-0.75768
-0.799999
-0.919953
-1.05651
-1.10469
-1.15448
-1.28518
-1.36736
-1.3786
-1.43718
-1.53222
-1.5473
-1.53551
-1.57765
-1.61904
-1.59632
-1.58156
-1.60424
-1.59994
-1.55749
-1.5381
-1.5249
-1.47439
-1.41891
-1.38694
-1.34116
-1.26492
-1.19918
-1.14947
-1.07608
-0.97964
-0.914991
-0.849837
-0.733641
-0.632198
-0.588153
-0.482811
-0.332101
-0.271627
-0.217018
-0.0438177
0.0697152
0.0784363
0.216636
0.416333
0.421103
0.448141
0.695866
0.817303
0.730313
0.872451
1.14777
1.11014
1.051
1.32598
1.47853
1.32362
1.41994
1.70784
1.65107
1.53701
1.78413
1.91042
1.72465
1.77956
2.01852
1.9232
1.78803
1.97132
2.03544
1.83696
1.85166
1.99338
1.86352
1.72846
1.82656
1.80565
1.59712
1.55871
1.59309
1.42612
1.24406
1.22262
1.13245
0.922308
0.805189
0.732537
0.544775
0.444073
0.446368
0.310808
0.244823
0.0886749
-0.280174
-0.234095
-0.293548
-0.765685
-0.88875
-0.926824
-1.30668
-1.62066
-1.56041
-1.74281
-2.22182
-2.30182
-2.19468
-2.6086
-2.96527
-2.76149
-2.83996
-3.35798
-3.337
-3.07387
-3.43041
-3.72971
-3.40817
-3.38734
-3.83196
-3.78724
-3.48633
-3.70575
-3.9287
-3.67924
-3.61228
-3.8096
-3.72238
-3.56255
-3.64228
-3.56172
-3.42469
-3.49026
-3.35598
-3.07283
-3.24518
-3.25414
-2.71371
-2.69552
-3.11251
-2.59751
-2.03411
-2.61423
-2.6801
-1.61549
-1.70796
-2.58258
-1.7429
-0.753007
-1.80528
-2.15781
-0.5044
-0.460459
-1.96724
-1.08795
0.470413
-0.798634
-1.59507
0.34546
0.633008
-1.2087
-0.400903
1.36133
0.0339946
-0.885199
1.09689
1.32851
-0.504391
0.334434
1.8971
0.541745
-0.149866
1.63633
1.52779
0.0279572
0.986967
2.03782
0.594627
0.404428
1.90151
1.34591
0.0243596
1.1715
1.77998
0.210222
0.142282
1.6131
0.704219
-0.603247
0.790147
1.41561
-0.989119
-0.971639
0.753333
0.031966
-0.521984
-0.562491
-0.166401
-0.0862895
-0.35095
-0.531118
-0.437562
-0.454214
-0.687379
-0.770518
-0.685998
-0.796324
-0.98715
-0.996295
-0.967737
-1.10323
-1.25198
-1.24454
-1.2239
-1.37505
-1.51391
-1.43174
-1.39967
-1.60074
-1.68495
-1.54645
-1.59836
-1.79357
-1.74863
-1.68578
-1.84822
-1.85806
-1.7214
-1.88204
-1.99877
-1.75298
-1.78817
-2.0949
-1.86097
-1.6205
-2.06876
-2.09537
-1.47962
-1.75925
-2.34484
-1.65604
-1.2588
-2.23638
-2.14568
-0.988451
-1.60647
-2.58199
-1.30825
-0.724052
-2.36685
-2.2025
-0.339722
-1.26984
-2.81816
-1.06565
-0.05847
-2.25043
-2.28263
0.061683
-0.782879
-2.65721
-0.941746
0.225992
-1.79103
-1.89641
0.11636
-0.586759
-1.9875
-0.608116
0.0904917
-1.34567
-1.18907
0.0884107
-0.597242
-1.22964
-0.261756
-0.0648493
-0.911544
-0.562778
-0.00605117
-0.404846
-0.632128
-0.125231
-0.192637
-0.475711
-0.158007
0.0554042
-0.517042
-0.315161
0.539356
-0.337814
-1.74705
-0.364579
0.85448
-0.0818697
-0.414485
-0.493571
-0.0539377
0.276767
0.0902309
-0.101256
0.151384
0.325865
0.0359881
0.00909322
0.390061
0.305488
-0.0323801
0.241273
0.516491
0.128156
0.038951
0.490418
0.385288
-0.0120341
0.283555
0.5628
0.19414
0.124943
0.529504
0.459626
0.175828
0.380251
0.52448
0.305294
0.361849
0.533324
0.347125
0.326026
0.591969
0.431593
0.241509
0.575184
0.598601
0.166634
0.424642
0.798469
0.278788
0.108458
0.818932
0.637164
-0.0885453
0.489455
1.03201
0.0745411
-0.0876679
1.11425
0.731275
-0.528125
0.468067
1.49457
-0.0879376
-0.632719
1.34175
1.12662
-0.936044
0.107705
1.83606
-0.0208684
-1.00416
1.33647
1.23825
-1.14279
0.101628
1.9218
-0.282511
-1.0747
1.54805
1.02219
-1.39405
0.291466
1.8163
-0.648681
-0.906598
1.60894
0.487018
-1.38613
0.737007
1.4333
-1.13664
-0.51029
1.73242
-0.0191341
-1.47428
0.960618
1.2741
-1.31377
-0.504832
1.71228
0.101976
-1.69829
0.437597
1.72766
0.517869
-0.233483
-0.54434
-0.133057
0.176109
-0.227511
-0.0462854
0.186916
-0.102854
-0.199189
0.0987835
0.0792625
-0.201955
-0.0865011
0.130196
-0.0673226
-0.226233
-0.00797545
0.0627051
-0.200899
-0.221258
0.0211466
-0.0454649
-0.292078
-0.169033
0.052775
-0.102602
-0.267984
-0.0760278
0.0285797
-0.190481
-0.194132
0.0351761
-0.083096
-0.29155
-0.00864121
0.108701
-0.282361
-0.249274
0.199007
-0.0472624
-0.404031
0.024719
0.204721
-0.352169
-0.237333
0.2927
-0.104084
-0.461445
0.186318
0.195947
-0.515705
-0.108884
0.482609
-0.346672
-0.57698
0.511167
0.231854
-0.903727
-0.0595856
0.809443
-0.493914
-0.85763
0.663289
0.36913
-1.02953
-0.0962246
0.840463
-0.478707
-0.747808
0.659423
0.225057
-0.851974
0.0701342
0.610844
-0.478167
-0.403074
0.485477
-0.047769
-0.517443
0.198738
0.19527
-0.361982
-0.0344331
0.167255
-0.172668
-0.0198811
0.088095
-0.270571
-0.0264322
0.299785
-0.174101
-0.34886
0.266507
0.352249
-0.494894
-0.267858
0.740055
-0.0508921
-0.0906612
0.567947
-0.401464
-0.830687
-0.223217
0.190651
-0.150965
-0.0223985
0.141918
-0.000537182
-0.112245
0.0798195
0.15697
-0.086919
-0.0539664
0.217634
0.0499005
-0.171818
0.112532
0.196263
-0.157706
-0.0781388
0.219188
-0.030174
-0.218929
0.112223
0.151392
-0.145647
-0.0223933
0.183281
-0.00713996
-0.0439327
0.112951
-0.0337806
-0.0623577
0.205493
0.0383511
-0.243829
0.1215
0.276613
-0.221621
-0.141713
0.373621
-0.0243414
-0.380647
0.281591
0.325239
-0.493016
-0.0899953
0.641246
-0.201827
-0.622543
0.575259
0.461243
-0.870891
-0.105564
1.08801
-0.341256
-1.08999
0.860953
0.88665
-1.313
-0.448918
1.60965
-0.161683
-1.63703
0.841333
1.36308
-1.4265
-0.733526
1.79369
-0.0404724
-1.73352
0.929128
1.34781
-1.51909
-0.570322
1.82251
-0.286253
-1.60647
1.07071
1.01384
-1.53565
-0.130027
1.62952
-0.717486
-1.23876
1.30385
0.594503
-1.54464
0.149816
1.41346
-0.779224
-1.00278
1.23289
0.516614
-1.44562
0.0889045
1.53717
-0.90236
-0.591574
0.871693
-0.506293
-1.11683
-0.682902
-0.0353429
0.23562
0.0391637
-0.274129
0.0751832
0.224376
-0.172338
-0.143287
0.233094
0.0724598
-0.224451
0.0341582
0.228392
-0.10557
-0.202753
0.148561
0.114811
-0.24521
-0.117563
0.166326
-0.058375
-0.262467
0.00325036
0.15577
-0.0643134
-0.139773
0.0510288
0.0651767
-0.0925147
-0.0124209
0.100199
-0.096053
-0.113768
0.194601
0.0795253
-0.257608
0.00255358
0.269836
-0.0948547
-0.214452
0.179391
0.126603
-0.210476
-0.00317039
0.197174
-0.0942942
-0.0936449
0.174411
-0.0370529
-0.1491
0.217987
0.0626148
-0.335797
0.131788
0.386759
-0.35225
-0.304332
0.547389
0.0962302
-0.652988
0.204291
0.585927
-0.485496
-0.346772
0.71493
0.00517951
-0.675578
0.399499
0.510497
-0.613151
-0.0777379
0.697014
-0.287972
-0.493016
0.590223
0.169778
-0.591661
0.254476
0.403639
-0.47535
0.0429648
0.494849
-0.559919
-0.245021
0.79132
-0.158493
-0.774057
0.569608
0.58688
-0.823656
-0.254627
1.08654
-0.0326364
-1.00026
0.457938
1.56833
0.678341
-0.584381
-1.28565
-0.555784
0.145876
0.0029294
0.0068278
-0.0292056
-0.019079
0.0469306
0.0190735
-0.0623865
0.0384296
0.096459
-0.0495692
-0.0143176
0.13268
-0.0154112
-0.0951043
0.100155
0.041192
-0.14354
0.018805
0.0719467
-0.178694
-0.101594
0.138268
-0.0234507
-0.120505
0.10675
0.0453679
-0.0919746
0.12241
0.0351497
-0.277323
0.0919613
0.357997
-0.253622
-0.348695
0.404187
0.212559
-0.504107
0.00920655
0.52617
-0.284557
-0.402746
0.530705
0.160734
-0.665448
0.198118
0.636381
-0.559675
-0.408615
0.868743
0.0226696
-1.02663
0.464216
0.969353
-0.984726
-0.713043
1.37279
0.199448
-1.61831
0.382173
1.52745
-1.05457
-1.16576
1.525
0.488724
-1.76854
0.344631
1.60289
-1.12172
-1.09464
1.65135
0.288016
-1.78129
0.508543
1.46075
-1.19354
-0.751604
1.63195
-0.0537266
-1.61445
0.740816
1.16053
-1.2592
-0.549767
1.27762
-0.0715288
-1.12887
0.573326
0.853142
-0.883057
-0.49536
1.11568
0.0204404
-1.15239
0.572796
1.48177
0.581177
-0.750672
-1.46503
-0.304861
0.340048
-0.323311
-0.0418549
0.302586
-0.0854248
-0.259953
0.184203
0.170315
-0.234876
-0.0590383
0.283529
0.00658672
-0.225852
0.123698
0.222356
-0.189722
-0.158132
0.227642
0.0375137
-0.291481
-0.0381759
0.141076
-0.133765
-0.204309
0.0382933
0.133447
0.0138313
-0.0859362
-0.0467715
0.0474695
0.0619889
0.029112
-0.073259
-0.107315
0.10292
0.172909
-0.120275
-0.142339
0.141268
0.100613
-0.115777
-0.0299885
0.07228
0.0147954
-0.00608556
-0.00976005
-0.0479934
0.0869527
0.10652
-0.177993
-0.103493
0.332827
0.047516
-0.477931
0.0909125
0.571044
-0.316542
-0.586953
0.576601
0.43991
-0.805339
-0.154737
0.969321
-0.229331
-0.866373
0.663381
0.610561
-0.938486
-0.0338662
1.0473
-0.513596
-0.821431
0.990744
0.369115
-1.0676
0.3162
0.999233
-0.696176
-0.350465
0.998894
-0.451098
-0.94516
1.01815
0.410953
-1.35057
0.341326
1.13317
-0.940855
-0.691237
1.38012
0.258686
-1.41165
0.407145
1.4834
-1.04123
-0.698243
0.95657
-0.912653
-1.65404
-0.653045
0.0638247
0.0521618
0.0284879
-0.10436
0.0449019
0.0593842
-0.0920785
-0.00737522
0.0878223
-0.0384309
-0.0224005
0.090145
0.0293667
-0.003281
0.0421267
-0.00627033
0.00641993
0.0383255
-0.0730247
-0.0490019
0.0731089
-0.112025
-0.24598
0.0517383
0.14894
-0.114517
-0.0312469
0.144493
-0.0763035
0.00893186
0.237955
-0.215375
-0.347783
0.420151
0.322481
-0.592101
-0.210295
0.679464
-0.0104301
-0.655265
0.288833
0.532528
-0.530865
-0.245227
0.680336
-0.086438
-0.62663
0.455636
0.414006
-0.705427
-0.0355889
0.808714
-0.428586
-0.734373
0.840055
0.411095
-1.2064
0.00128503
1.30418
-0.576598
-1.20638
1.04334
0.784433
-1.4304
-0.143256
1.49623
-0.579236
-1.28721
1.18492
0.660882
-1.56603
-0.02286
1.47066
-0.706115
-0.953815
1.39617
0.457023
-1.60375
0.188995
1.46629
-0.788218
-1.07988
0.888445
0.443436
-0.908468
0.00824511
0.760305
-0.152068
-0.731886
0.353956
0.660699
-0.526662
-0.443794
0.778561
0.481276
0.865654
1.03092
-0.979483
-1.98154
-1.04457
0.0177316
0.281137
0.0347289
-0.303738
0.0844624
0.238755
-0.17589
-0.16927
0.216617
0.0738574
-0.22619
0.0341296
0.275002
-0.0457094
-0.170813
0.187083
0.139847
-0.243365
-0.0535687
0.22697
-0.091077
-0.259684
0.012783
0.0335207
-0.147398
-0.137753
-0.021529
0.174322
0.178999
-0.158521
-0.241587
0.158644
0.29963
-0.0965633
-0.327618
0.0763795
0.339105
-0.0658999
-0.243989
0.138171
0.118336
-0.126248
0.0449217
0.0839924
-0.156976
0.0657437
0.222623
-0.217899
-0.174802
0.426423
0.0492829
-0.597984
0.170391
0.681396
-0.493769
-0.688108
0.808204
0.498609
-1.10709
-0.176478
1.30435
-0.259421
-1.24284
0.749097
0.976909
-1.14744
-0.330129
1.38455
-0.406571
-1.32583
1.07321
0.786512
-1.47301
0.0912297
1.74358
-0.62012
-0.993893
1.36164
0.148466
-1.68981
0.733018
1.46171
-1.54828
-0.628376
1.67747
-0.557471
-1.49985
1.36365
0.913237
-1.55698
-0.213254
1.86599
-0.28371
-1.82384
1.31025
2.61795
0.73902
-1.09061
-2.22609
-0.663871
0.445008
-0.252883
-0.0788071
0.235931
-0.0675025
-0.193466
0.157133
0.0806393
-0.198823
0.000391816
0.16108
-0.0581753
-0.0646339
0.139039
0.105195
-0.0341917
-0.0301466
0.0490378
0.0714352
-0.0560855
-0.126529
0.0501236
0.0372316
-0.297769
-0.255469
0.203524
0.201757
-0.119536
-0.0203286
0.0516043
-0.0592868
0.235888
0.12126
-0.539817
-0.143712
0.724527
0.0380211
-0.818853
0.108222
0.789101
-0.317307
-0.613667
0.549757
0.378291
-0.640748
-0.0103989
0.630722
-0.258994
-0.413354
0.476038
0.101164
-0.537961
0.21685
0.385011
-0.582264
-0.172839
0.744072
-0.232711
-0.828264
0.570386
0.642449
-0.929869
-0.259718
1.11622
-0.228981
-1.14687
0.713722
0.754782
-1.16448
-0.431187
1.09639
-0.273227
-0.714528
1.08004
0.518806
-1.35042
-0.0305742
1.41819
-0.328204
-1.2406
0.402061
0.654985
-0.577346
-0.151675
0.408637
0.160621
-0.413524
-0.424896
0.603388
0.563912
-0.927229
-0.228098
1.05209
-0.211863
-0.772241
0.637794
0.951732
-1.30165
-2.35563
-0.576404
0.342345
-0.330596
0.0108335
0.245885
-0.0935342
-0.187517
0.136093
0.104555
-0.168218
-0.0681926
0.152505
-0.000985529
-0.143405
0.11118
0.232784
-0.0605027
-0.0735022
0.188422
-0.00653543
-0.23011
0.0828904
0.150537
-0.215875
-0.195412
0.0241826
-0.0376591
-0.130917
-0.199534
-0.0926242
0.401053
0.340392
-0.426055
-0.421647
0.477279
0.518907
-0.450457
-0.509825
0.494792
0.413357
-0.454052
-0.126246
0.440316
-0.119927
-0.239121
0.340553
0.0299618
-0.389251
0.2741
0.319069
-0.528608
-0.0978355
0.693582
-0.29477
-0.791548
0.673656
0.635684
-1.1135
-0.345415
1.4375
-0.0899252
-1.53562
0.605462
1.37509
-1.10884
-0.802149
1.52963
0.0542632
-1.79319
0.615233
1.28173
-1.39994
-0.374606
2.22213
-0.206858
-1.64565
1.34668
0.922412
-2.16903
0.135428
2.59531
-0.918372
-1.91727
1.68652
0.560931
-2.4847
0.620845
1.82226
-1.35749
-0.981476
1.69565
0.594249
-1.63202
0.0332764
1.8225
-0.433327
-0.180813
1.28951
-1.43228
-2.54485
-1.1628
-0.0643728
0.289811
0.120511
-0.379159
0.0771053
0.29576
-0.225255
-0.176689
0.272916
0.0118065
-0.281375
0.059109
0.188058
-0.0952492
-0.0357474
0.222718
0.124989
-0.0971802
-0.0377738
0.119039
0.0532753
-0.134322
-0.098638
0.0732589
-0.11713
-0.440414
-0.20426
0.397417
0.37504
-0.114838
-0.226106
-0.0889411
0.214966
0.424412
-0.292728
-0.723533
0.293101
0.807209
-0.383426
-0.811899
0.458647
0.683722
-0.54252
-0.394406
0.636894
0.169203
-0.522006
0.128117
0.392264
-0.238398
-0.199973
0.198921
-0.0711866
-0.157567
0.13716
-0.109798
-0.261573
0.268543
0.16702
-0.47273
0.0719276
0.669891
-0.297247
-0.767597
0.551273
0.554561
-0.919232
-0.654617
0.683426
0.0840291
-0.23238
0.827603
0.224634
-1.09632
0.107908
1.07325
-0.300787
-0.998263
0.0286487
0.284408
-0.124018
0.257048
0.358958
-0.0389812
-0.132332
-0.442001
-0.346711
1.33985
-0.369378
-1.59504
1.18632
1.17637
-1.48899
-0.584216
2.52127
2.8816
1.06021
-1.48752
-2.97905
-1.3244
0.267654
0.171492
-0.0750759
-0.146568
0.10654
0.0582929
-0.0942037
-0.0259188
0.0578215
-0.00939907
-0.067591
-0.0333751
0.0189898
-0.0124487
-0.00136969
0.18077
0.179509
-0.0495538
0.0194518
0.122695
-0.164542
-0.187111
0.221418
0.080184
-0.353394
-0.172376
0.125433
0.022401
-0.290071
-0.515564
-0.0185105
0.866135
0.392596
-0.876586
-0.466297
0.999442
0.57411
-1.00575
-0.426619
1.03319
0.193856
-0.782479
0.252194
0.58853
-0.461274
-0.159052
0.602963
-0.176773
-0.506233
0.482404
0.168546
-0.744243
0.179124
0.702336
-0.731095
-0.556341
1.14945
0.170477
-1.48317
0.279633
1.49554
-0.818227
-1.10787
1.40755
0.517388
-2.10101
-0.248631
1.68959
-0.65452
-0.833543
2.18635
0.574677
-1.94001
0.694762
1.37991
-2.20231
-0.456568
3.48549
0.199387
-2.82775
1.09605
1.81149
-2.64592
-1.08041
2.732
-0.310685
-2.21182
1.29038
0.967493
-1.01044
-0.853967
1.4862
1.17276
-1.97084
0.135186
2.38892
0.961137
-1.6595
-3.24444
-0.821391
0.69469
-0.484382
-0.150186
0.473131
-0.0943715
-0.396337
0.266834
0.212948
-0.34386
-0.055262
0.305644
-0.122906
-0.292717
0.119672
0.143637
-0.0775514
0.115221
0.282515
0.0105022
-0.143366
0.110805
0.144319
-0.117877
-0.122919
0.0143252
-0.0871993
-0.392224
-0.508101
-0.0597497
0.765559
0.702829
-0.249957
-0.729291
-0.114029
0.743434
0.365669
-0.869831
-0.587392
0.740873
0.587961
-0.733172
-0.567384
0.634491
0.408903
-0.496502
-0.111271
0.442012
0.0228932
-0.271971
0.0210224
0.11637
-0.0362869
-0.172762
-0.168952
0.0959589
0.159362
-0.280821
-0.188014
0.576574
0.343897
-0.677172
-0.329623
0.787495
0.130208
-1.13668
-0.658281
0.60448
0.339833
0.217201
0.786633
-0.0504532
-1.03654
0.264435
0.697457
-0.618909
-0.720486
-0.20288
-0.91737
-0.118857
1.60175
0.746146
-0.38732
0.0663862
-0.0649348
-0.852596
0.83687
1.14666
-2.29136
-0.528264
2.87382
-1.3691
-1.73812
1.77571
0.687929
-1.70891
-0.25179
1.36803
-1.88877
-3.32042
-1.02823
0.210202
-0.16934
0.166518
-0.0019802
-0.136236
0.0863109
0.0392296
-0.125882
0.0522813
0.0667903
-0.112104
-0.0332956
0.0533917
-0.1073
-0.130304
0.066106
0.211371
0.275737
0.106145
-0.0840875
0.0608286
0.0793132
-0.340613
-0.258512
0.470856
0.118071
-0.627841
-0.110705
0.539966
0.154706
-0.93243
-1.20587
0.329369
1.5821
0.299155
-1.43283
-0.268747
1.64313
0.31448
-1.60165
0.0143201
1.46151
-0.216899
-0.837341
0.7038
0.532655
-0.698998
0.0115066
0.590054
-0.452565
-0.413266
0.581862
-0.131458
-0.680812
0.505543
0.373703
-1.08737
-0.162919
1.18059
-0.320345
-0.987252
0.987884
0.533071
-2.26877
-1.0027
2.04635
0.574295
-0.897622
1.69296
1.34445
-1.77729
-0.501709
1.42892
-1.32269
-0.62331
3.64359
1.24477
-3.22065
0.194348
2.29173
-2.2989
-2.52123
2.42411
1.924
-2.37757
0.0775064
1.53411
-1.44142
-0.989886
0.390136
1.51829
0.245318
-2.11754
1.14285
2.77355
1.90463
1.2462
-1.98966
-3.57237
-1.61339
-0.036564
0.408184
0.157895
-0.52475
0.107229
0.416975
-0.304146
-0.238876
0.360551
0.0210562
-0.326141
0.107502
0.197267
-0.268759
-0.230543
0.121812
0.066046
0.114995
0.401761
0.148212
-0.294876
0.00615278
0.511366
-0.0509129
-0.519689
0.126663
0.178918
-0.51835
-0.794927
-0.644392
0.316545
1.61051
1.12304
-0.719063
-1.4287
0.157611
1.29695
-0.0544997
-1.27512
-0.107862
0.921104
0.102536
-0.80797
-0.137361
0.493856
0.0720818
-0.229748
-0.0618209
-0.0213413
0.0268383
-0.047595
-0.209893
0.0707709
0.223255
-0.348501
-0.153631
0.788721
0.229315
-1.02549
-0.151006
1.02242
-0.422606
-1.83114
-0.34188
1.30335
0.5655
0.33871
0.860918
-0.349305
-1.4375
0.170404
0.731934
-0.85023
-0.926458
-0.486776
-2.11519
-0.464059
3.4007
1.79659
-1.29769
0.161544
0.211628
-1.34745
0.931438
2.42504
-0.986693
-3.49356
2.90323
1.24424
-4.55288
1.19606
2.3119
-1.71365
-1.88891
3.22092
4.83863
0.837847
-2.07354
-4.09693
-1.50816
0.621452
-0.0694606
-0.239547
0.153322
0.167833
-0.274503
-0.00181368
0.263278
-0.178794
-0.182065
0.26315
0.0351383
-0.274747
0.0330409
0.0864904
-0.302093
-0.208482
0.29901
0.554391
0.365341
-0.138407
-0.204467
0.12797
0.135091
-0.725732
-0.544951
1.08076
0.283593
-1.04477
0.258016
1.35064
0.299955
-2.24631
-2.50078
0.766062
2.47585
0.126409
-1.98482
0.23512
2.2333
-0.263105
-1.97933
0.58451
1.58983
-0.411131
-0.541132
0.792122
0.0809045
-0.752112
0.318642
0.473233
-0.571561
-0.225062
0.340281
-0.584163
-0.546914
0.606883
0.219053
-0.554374
0.32093
-0.0395552
-2.16335
-0.789361
2.75134
1.87351
-0.522059
0.966052
1.41365
-1.40999
-1.55318
1.20493
0.289164
-0.24685
3.12001
2.0847
-2.92898
-1.23978
1.06992
-2.09023
-3.27478
1.03239
3.0469
0.134927
-0.685249
1.23199
-0.42124
-2.09065
1.68704
-0.516808
0.252048
-1.88569
-1.13621
4.6756
-0.891509
-2.8316
0.108859
1.04484
-2.29543
-4.34229
-1.1792
0.763902
-0.512869
-0.125879
0.4965
-0.120457
-0.403898
0.315992
0.169372
-0.36629
0.0180507
0.263847
-0.161047
-0.126516
0.218481
-0.0782891
-0.405151
-0.135952
0.0668198
0.102858
0.654635
0.605358
-0.533543
-0.510385
0.616935
1.00855
-0.578195
-1.11409
0.582509
0.496324
-1.02437
-1.77197
-1.41739
1.23021
3.41891
1.60841
-1.73738
-1.98473
0.932977
1.61565
-0.759244
-1.18116
0.755021
0.88776
-0.452671
-0.575773
0.127123
-0.269247
-0.494149
-0.00891825
-0.0793435
-0.177118
0.307783
-0.0150735
-0.33105
0.439005
0.241339
-1.20881
-0.609972
0.747756
-0.800825
-2.30673
0.494869
2.61179
0.533878
-0.370989
0.728364
-0.632871
-2.15988
0.00771985
1.12233
-1.10338
-1.92239
-0.616525
-1.47188
-0.416027
4.81357
3.54277
-1.712
0.0152552
-0.662173
-3.06758
0.318706
4.68868
-0.0917012
-5.29663
1.16059
5.78498
-2.36984
-4.4239
5.78639
-2.35824
-3.5166
-1.18905
0.825725
3.55202
-1.77664
0.725473
-2.5118
-4.41699
-1.5918
0.094551
0.0451331
0.321778
-0.281726
-0.194954
0.410136
-0.0175939
-0.433827
0.261069
0.253051
-0.417765
-0.0643231
0.424085
-0.0785438
-0.356964
0.0936797
-0.0938055
-0.551342
-0.0261279
0.789372
1.05616
0.115573
-0.737753
-0.0225793
0.182961
0.0203113
-1.23671
-0.999958
1.7588
0.727747
-1.06794
1.00534
2.65883
0.659723
-4.13097
-4.44912
0.536007
3.02557
-0.142741
-2.30495
0.892883
2.43333
-0.740202
-1.70172
0.927635
0.913851
-1.00397
-0.501066
0.768466
0.0724327
-0.329861
0.290056
-0.195243
-0.760794
0.0432967
0.687054
0.149968
-0.0381986
-0.501689
-1.12792
0.903324
3.64153
2.29177
-0.40705
0.0425887
0.722719
-1.05661
-1.48927
1.10952
1.39386
0.317436
1.75374
1.96562
-2.82231
-3.31888
-0.197049
-1.24962
-2.82274
-1.42267
2.31743
3.91648
0.885999
0.622832
-1.3025
-1.5998
1.05384
1.11464
-1.4422
0.0980645
-1.02526
0.827719
2.46018
-7.60136
1.20292
11.8978
3.79976
-1.44595
-2.60801
-4.7573
-1.9007
0.219671
0.272521
0.090502
-0.398713
0.139318
0.309835
-0.308247
-0.100158
0.332721
-0.164196
-0.197153
0.226264
-0.0114075
-0.177809
0.221669
0.145957
-0.588103
-0.512891
0.0725824
0.0632484
0.429944
1.54615
0.013216
-1.7618
0.204842
1.34793
1.27338
-0.553731
-1.91153
0.284316
1.61637
-0.973021
-4.41941
-3.81427
2.31244
6.33105
2.63028
-3.06824
-2.28516
2.24663
1.94795
-1.43426
-0.482039
2.20067
1.19143
-1.13387
-1.27098
-0.596676
-0.470432
0.400738
0.428206
-0.647232
-0.602566
-0.107525
-1.31971
-1.25709
0.418982
-0.112983
-1.51315
1.30895
3.00048
-0.772557
-1.9953
0.222858
-0.518401
-2.2289
0.204776
2.07534
-1.17333
-2.76678
0.18487
0.805981
0.447455
4.52258
5.67521
-1.45836
-1.6102
-0.458806
-3.75818
-0.428863
4.25319
0.0586106
-9.12304
-2.57628
9.7548
2.7625
-5.562
2.36413
4.80173
-10.3348
-1.65464
-0.417159
0.289635
1.27946
1.03866
5.85223
-2.61662
-2.74182
-5.30409
-1.74041
0.880505
-0.279134
-0.326556
0.362573
0.219448
-0.49607
0.024145
0.513475
-0.299439
-0.377629
0.488163
0.047111
-0.530425
0.182834
0.496158
-0.187934
-0.445992
-0.0866129
-0.428534
-0.50449
0.639547
1.42149
1.31459
-0.918696
-1.027
0.796669
-0.525753
-0.403423
-0.984531
-1.72075
1.04827
1.52399
0.199403
2.48028
5.16647
1.32251
-5.95889
-5.75825
-0.36058
2.08799
-1.13898
-1.966
1.8475
2.46641
-1.13355
-2.04585
-0.361883
-0.394953
-0.263153
0.507048
0.116991
-0.546193
0.300355
1.3627
1.00333
0.0799494
-0.361902
0.179795
2.18328
3.08799
0.342811
-1.09412
-0.525359
-0.16304
-0.829188
-0.679571
0.877914
0.836473
0.0513185
0.619121
0.719007
-3.89149
-5.2845
-0.608099
0.562976
-2.7535
-0.317749
4.27882
7.36548
2.50734
-2.67377
-1.61305
-0.90901
4.76936
0.100481
-3.68449
-1.49553
2.22815
-1.12622
0.171123
-5.65363
-8.99911
10.4941
8.48121
-5.71477
-7.44704
-1.4124
-2.98099
-5.51558
-1.75498
0.650079
-0.317179
-0.00598316
0.254552
-0.140514
-0.182939
0.29842
-0.0231768
-0.288786
0.248467
0.106344
-0.405513
0.141366
0.250028
-0.333048
0.135107
0.60478
-0.469537
-1.39747
-0.151263
0.675116
0.0538691
0.854441
2.14457
-1.55217
-2.47934
1.51322
1.41341
1.70069
1.27595
-2.52163
-1.52725
3.61444
0.708647
-8.4574
-9.14392
0.9039
8.22412
4.72971
-3.58954
-2.96311
2.94078
2.32926
-1.32852
-0.341556
1.70411
0.844478
0.363277
1.34407
0.148951
-1.02329
-0.397339
-0.903306
-1.47697
-0.0998138
0.855115
-0.372307
0.968652
1.03422
-2.19988
-1.60161
1.28223
0.922795
-0.810705
0.442668
2.51277
-0.544631
-2.07765
2.23523
3.97988
1.56389
2.66614
5.29991
-1.53838
-5.44762
-0.820025
-1.5679
-4.68292
1.2999
1.41499
-6.58623
-6.0736
8.53718
5.25826
-9.64624
-0.000563533
8.74153
7.48533
-7.00138
8.3714
-9.56428
-12.0394
-4.59493
11.4049
20.9637
-8.30059
-0.385658
-3.17039
-5.62964
-2.07023
0.16094
0.108246
0.333601
-0.360445
-0.202008
0.491297
0.012152
-0.53142
0.289808
0.381969
-0.492413
-0.137794
0.531519
-0.248309
-0.485272
0.557336
0.552626
-0.383898
-0.98087
-0.440831
-0.126566
0.0600076
1.50653
1.42499
0.475524
-1.22793
0.0997863
0.579611
-1.80676
-1.16645
-0.768802
-2.09394
-1.61912
-0.1954
1.73765
6.58412
9.66732
2.16334
-6.55349
-3.82587
1.44952
1.29779
-1.92562
-0.821969
1.48774
0.0407149
-2.31334
-0.968329
0.873697
0.57179
0.544724
0.752245
-0.28871
-1.4
-1.69412
-0.97461
0.475736
0.192091
-1.6229
-1.0566
-0.786952
-1.91668
-2.10715
-0.628251
0.144623
-0.781358
-0.912043
-0.0837236
-1.19918
-5.90616
-5.49122
1.80041
4.08211
0.102274
3.19355
7.60091
5.35112
-0.381189
-3.04848
-1.76637
3.49049
-0.0692521
-3.82943
-3.28997
4.34548
-1.44508
-3.25528
2.61123
-5.791
5.29762
8.61919
5.03383
-17.0494
-22.66
-0.87205
-0.0757223
-0.296856
-3.28008
-6.0296
-2.10295
0.565134
-0.0307308
-0.0304925
-0.0874102
0.143008
0.0412432
-0.242951
0.128056
0.273538
-0.363058
-0.0338763
0.442125
-0.259441
-0.436241
0.455274
0.119508
-0.484099
0.868438
0.509479
-2.21552
-1.43515
1.56333
0.831095
-0.423489
0.861095
1.98554
-1.61671
-2.73164
0.952946
2.22545
2.1583
3.44056
0.0990408
-2.10857
5.21706
5.97846
-9.23148
-16.0866
-5.9954
4.25758
4.95228
-2.23644
-1.99494
2.67716
-0.619688
-4.57061
-1.41998
1.36958
2.23045
2.13516
0.524806
-1.22432
0.376323
2.26881
1.47888
0.443309
0.599422
1.8972
2.73379
3.26378
2.21742
0.69988
0.196511
2.40203
1.09367
-0.404493
2.71373
4.73171
1.77797
-0.302167
2.18058
-1.83033
-8.58603
-3.0764
-0.238485
-6.26818
-3.34039
2.92303
1.13681
-3.42466
5.43776
8.59914
-0.60614
-3.08927
8.26207
1.66021
-3.39465
3.34705
11.2224
-7.97175
-11.5477
-5.73703
6.07566
-10.321
-24.5868
-0.876615
-4.61419
-3.45025
-6.56963
-2.18738
0.935212
-0.287337
-0.261891
0.28101
0.170098
-0.381731
-0.0141783
0.451951
-0.190853
-0.361246
0.449901
0.0838095
-0.458745
0.0985677
0.378434
-0.521778
-0.277378
1.2095
0.381821
-1.34438
-1.76029
0.607637
0.510905
-0.190887
2.48258
0.483678
-1.14209
1.80669
1.70093
-0.827952
-1.03533
-3.04186
-3.09242
-1.14275
-4.21074
-7.56612
-3.0902
8.44497
14.2672
3.5617
-5.86548
-0.796899
5.29343
2.14524
-3.1168
-0.605569
2.9272
2.18113
0.560332
0.156057
-2.09255
-3.84409
-3.02299
-1.09071
-0.0606681
-0.942277
-1.1721
-1.7912
-3.63789
-3.64864
-2.2146
0.227499
0.14154
-1.76904
-1.92412
0.0613076
-1.65643
-4.33675
-1.54049
5.97625
8.16766
4.35395
4.69429
5.79346
0.177213
-5.1103
-5.05648
-2.5868
-0.615248
-6.33642
-8.69444
-2.84857
8.46381
-0.183973
-7.04927
-7.01612
-3.58014
-11.8901
0.146962
9.74749
-7.15899
-2.12283
-12.4909
27.8874
45.9735
13.0376
-14.0135
-3.67997
-6.70697
-2.30072
0.546904
-0.135081
0.100039
-0.0350919
-0.125127
0.0757384
0.189165
-0.184886
-0.198972
0.411334
0.0793304
-0.541349
0.326499
0.356046
-0.543116
-0.352564
0.619065
0.159844
-0.481398
1.49188
-0.565036
-3.77702
0.62331
2.35067
-0.831089
-0.452264
0.768147
1.54331
-0.154627
-3.8947
-0.603652
3.57204
1.50513
3.76352
4.00179
2.10611
10.2009
13.7961
-1.46546
-12.7878
-7.87813
0.888678
1.56069
-2.6815
-2.4526
0.458331
-0.615385
-4.04843
-3.33124
-1.34329
1.03165
2.97722
2.91924
0.526888
0.876184
3.71194
0.55193
-1.56895
1.39098
0.391663
-1.64399
0.196657
0.435864
-0.676884
0.688888
1.8095
-1.06628
-4.3939
-3.51225
-2.82681
-7.58269
-3.39961
3.7542
0.0194075
-1.0704
5.721
11.2856
2.64452
0.781671
6.77057
1.39306
-12.2201
-3.58564
0.365612
-5.95123
-0.841516
-4.19828
-3.73629
-4.53044
15.2378
-35.044
-32.2799
19.8157
-10.7079
15.127
-2.61033
-11.8877
-3.84017
-6.81326
-2.33667
0.34557
-0.0533917
0.263773
-0.176072
-0.162387
0.206746
0.0463108
-0.248154
0.120135
0.271251
-0.268788
-0.0901852
0.411998
-0.194337
-0.251964
0.218566
0.0833821
-0.685249
0.294948
1.64112
-0.590108
-2.54928
-0.386966
1.37421
-1.71846
0.611683
4.72695
-1.39249
-3.07325
4.37136
4.48407
0.753329
1.09965
-1.49789
-4.52462
-0.676088
-1.45444
-14.1717
-18.2434
-6.08544
7.44566
2.78105
-5.03826
-2.31882
-0.218744
-0.634564
-0.609871
0.017784
1.24749
1.97011
1.84412
2.30755
3.55363
2.01177
-1.27931
-3.17861
-0.869643
3.63537
3.96364
4.23824
3.30738
0.460852
-0.398768
2.92306
2.68284
1.12962
2.97443
7.65811
8.69998
4.1638
-2.40211
-3.68293
-5.92135
-8.01807
-4.04185
-1.8673
-3.43459
-2.17191
2.79157
4.42818
6.76283
-4.33243
-12.4787
18.0338
28.6946
2.53649
-4.57535
11.7251
2.40039
41.5244
-25.4504
-32.1122
36.1794
13.5811
-60.1747
-68.3538
-5.85181
-3.9491
-7.31029
-2.45584
0.825065
-0.174653
-0.12376
0.0530593
0.125934
-0.100885
-0.140208
0.170701
0.148449
-0.315173
-0.0203686
0.533035
-0.16356
-0.517608
0.546751
0.174289
-0.618376
-0.487033
0.87797
0.478039
-0.849772
1.89173
-0.771004
-4.23513
0.633684
2.77363
-1.33438
-2.04726
1.29037
1.4512
-0.982711
-4.61358
-2.41794
0.494655
1.00791
1.4961
-1.58131
0.954221
10.4686
15.1477
5.48355
-2.81411
2.2197
4.10545
-0.705877
0.527515
5.2806
5.63314
3.98217
3.10798
-3.31769
-6.92959
-4.79589
-4.51592
-5.56867
-2.8321
-1.12921
-4.35591
-7.13182
-4.77106
-1.14386
-1.26578
-2.92651
-2.31883
-3.47918
-4.02385
-3.78922
-1.55479
-3.25764
-1.93959
6.6801
9.48152
5.57076
6.7604
9.63485
-0.152218
-11.4867
-7.32578
-5.21001
-14.1199
-0.477324
12.8598
-3.31384
-19.2689
2.416
-23.9396
7.92813
50.1451
130.978
98.6094
-19.7565
108.123
144.718
55.6176
-24.5723
0.271978
-18.1328
-4.12343
-7.76391
-2.68133
0.914748
-0.200845
-0.166443
0.0823854
0.125582
-0.0996651
-0.110037
0.0688741
0.0354058
-0.0457733
0.122593
0.0611753
-0.144277
0.0388031
0.253203
-0.281331
-0.0790173
0.508656
-0.604163
-0.665164
1.28116
1.27466
-1.88751
-2.12946
1.62928
0.0182229
-3.45252
1.94848
6.86267
-0.588803
-4.88298
2.75516
6.77526
3.74825
3.18173
4.48882
2.27653
6.3727
13.8824
2.05775
-17.5834
-14.0992
3.38845
3.24791
-3.59097
-5.84761
-0.479993
-0.757654
-4.29037
-2.64088
-2.68814
-0.72714
0.193335
-1.73124
7.04044
11.9023
4.67083
0.599253
1.77202
1.06549
-0.302236
2.20857
4.8558
2.55884
1.20289
2.79695
-0.212742
-3.57649
-6.46461
-6.02878
-5.77879
-3.92587
-0.114701
-1.678
-5.4428
11.8717
16.816
1.14204
5.00808
5.89244
-8.4797
-2.63131
14.9044
-13.6362
-13.9147
-2.70138
9.8672
64.7014
193.457
192.666
162.261
186.295
53.3698
-63.905
71.2705
22.2173
-49.1754
-4.31905
-7.6795
-2.54907
0.470388
-0.177242
0.251631
-0.0769765
-0.210767
0.0772973
0.174911
-0.0932808
-0.189707
0.148113
0.109726
-0.223038
0.179726
0.410991
-0.252033
-0.590819
0.48905
0.67332
-1.02453
-1.01302
2.17491
0.265828
-1.40593
1.59401
0.652861
-3.1629
0.601272
4.49659
-3.37998
-4.43989
1.62504
2.81718
-3.49144
-6.73107
-6.09215
-6.50437
-0.347906
-0.67842
-7.80149
-11.0651
-10.0737
0.0141986
2.79049
-1.37517
1.56137
0.907766
-1.1362
1.0519
-1.48154
-0.437232
4.47108
6.17659
4.51788
1.97546
1.68935
2.42605
1.47481
2.34982
2.92641
1.7006
-0.951825
-1.50132
-0.993434
0.281227
1.39554
3.35094
3.07873
6.9037
9.95944
7.6383
-1.53678
-5.07026
-3.33541
-5.18317
-10.5619
1.64133
6.222
-3.97876
-2.97517
6.29805
-6.03471
-25.7162
21.6747
29.5712
31.636
-14.9742