# vtk DataFile Version 3.0
fluid_state
ASCII
DATASET RECTILINEAR_GRID
DIMENSIONS 100 100 1
X_COORDINATES 100 double
0 1 2 3 4 5 6 7 8 9 10 11 12 13 14 15 16 17 18 19 20 21 22 23 24 25 26 27 28 29 30 31 32 33 34 35 36 37 38 39 40 41 42 43 44 45 46 47 48 49 50 51 52 53 54 55 56 57 58 59 60 61 62 63 64 65 66 67 68 69 70 71 72 73 74 75 76 77 78 79 80 81 82 83 84 85 86 87 88 89 90 91 92 93 94 95 96 97 98 99 
Y_COORDINATES 100 double
0 1 2 3 4 5 6 7 8 9 10 11 12 13 14 15 16 17 18 19 20 21 22 23 24 25 26 27 28 29 30 31 32 33 34 35 36 37 38 39 40 41 42 43 44 45 46 47 48 49 50 51 52 53 54 55 56 57 58 59 60 61 62 63 64 65 66 67 68 69 70 71 72 73 74 75 76 77 78 79 80 81 82 83 84 85 86 87 88 89 90 91 92 93 94 95 96 97 98 99 
Z_COORDINATES 1 double
0
POINT_DATA 10000
SCALARS vorticity float 1
LOOKUP_TABLE default
-0.00132797
-0.00889431
-0.0531058
-0.101043
-0.145209
-0.200622
-0.254538
-0.296517
-0.344115
-0.402554
-0.453348
-0.495137
-0.546759
-0.605029
-0.65164
-0.693488
-0.747694
-0.802999
-0.84499
-0.887846
-0.942293
-0.991374
-1.02722
-1.06784
-1.11708
-1.15487
-1.18213
-1.21776
-1.2556
-1.27784
-1.29453
-1.32038
-1.34081
-1.34406
-1.34648
-1.35407
-1.34881
-1.32769
-1.3098
-1.29272
-1.25871
-1.21577
-1.17825
-1.13346
-1.07113
-1.00612
-0.944679
-0.871303
-0.786034
-0.705353
-0.623556
-0.528694
-0.431225
-0.340141
-0.243261
-0.138106
-0.0395196
0.0564741
0.15925
0.259157
0.349272
0.440343
0.533114
0.615127
0.691218
0.770556
0.841993
0.898793
0.953797
1.0088
1.04861
1.07804
1.1122
1.13993
1.14938
1.15434
1.16264
1.16049
1.14459
1.13084
1.11749
1.08927
1.05272
1.02016
0.982084
0.931913
0.881394
0.83347
0.776305
0.712398
0.651844
0.589431
0.51729
0.446243
0.379367
0.304364
0.224582
0.159409
0.102168
0.0130176
-0.023813
-0.0595532
-0.0726831
-0.159264
-0.26479
-0.333062
-0.41031
-0.517399
-0.612141
-0.673563
-0.76066
-0.872281
-0.957732
-1.01466
-1.11259
-1.22633
-1.29514
-1.35525
-1.46547
-1.5717
-1.62467
-1.68753
-1.80339
-1.88361
-1.91644
-1.98524
-2.08747
-2.13624
-2.15699
-2.22428
-2.29757
-2.3083
-2.31192
-2.3591
-2.38635
-2.35508
-2.33933
-2.35246
-2.32334
-2.2481
-2.19798
-2.16325
-2.07488
-1.95489
-1.876
-1.79297
-1.64574
-1.49276
-1.38556
-1.2494
-1.05344
-0.886398
-0.75817
-0.574123
-0.360676
-0.204573
-0.0568863
0.155963
0.350941
0.485842
0.652224
0.854804
0.996968
1.11297
1.27566
1.42416
1.51065
1.61523
1.74436
1.82102
1.86455
1.94756
2.00897
2.01265
2.03527
2.07905
2.06818
2.03799
2.03833
2.02609
1.96033
1.90773
1.87268
1.80173
1.71037
1.64017
1.55859
1.45503
1.3527
1.25476
1.13473
1.01974
0.908188
0.778663
0.640866
0.528551
0.415359
0.263254
0.130951
0.000319536
-0.0681046
-0.135178
-0.0386794
-0.0271383
-0.102591
-0.106995
-0.106556
-0.169756
-0.213046
-0.195732
-0.223548
-0.290854
-0.31076
-0.294058
-0.348767
-0.413311
-0.405291
-0.407991
-0.477601
-0.517839
-0.499608
-0.520984
-0.595806
-0.609148
-0.592286
-0.634921
-0.690159
-0.681598
-0.674727
-0.717413
-0.748098
-0.732574
-0.731916
-0.764354
-0.777242
-0.754465
-0.745981
-0.762628
-0.760091
-0.720965
-0.700021
-0.708723
-0.684178
-0.61924
-0.595898
-0.595809
-0.534519
-0.456538
-0.444249
-0.417716
-0.322639
-0.257442
-0.249869
-0.181571
-0.0775652
-0.0435978
-0.0150295
0.0834193
0.156153
0.171504
0.231506
0.324188
0.351306
0.377
0.456718
0.505915
0.506909
0.553242
0.615237
0.615654
0.61367
0.672518
0.691459
0.662339
0.679617
0.716519
0.695484
0.668808
0.681821
0.686603
0.644218
0.625045
0.623941
0.593296
0.555652
0.537575
0.503574
0.463241
0.434589
0.405101
0.350042
0.317789
0.297352
0.243432
0.184107
0.174507
0.139489
0.0596904
0.0664264
0.0292095
-0.118273
-0.225627
-0.099561
0.0266611
0.0327462
0.0181091
0.0133085
0.0420382
0.0662681
0.0442658
0.0352939
0.0785246
0.0924247
0.0611368
0.0651436
0.11739
0.119238
0.0774292
0.103148
0.157724
0.13209
0.0951768
0.14589
0.187287
0.139715
0.124884
0.192328
0.206068
0.146046
0.161908
0.228281
0.204212
0.154812
0.198037
0.240118
0.188416
0.162977
0.218705
0.224482
0.164657
0.165295
0.213802
0.186177
0.131165
0.156319
0.18216
0.132029
0.0959993
0.126935
0.128113
0.0660104
0.0532636
0.0836051
0.0551449
-0.000199338
0.00607442
0.0232341
-0.0257415
-0.0606104
-0.0365431
-0.0459648
-0.0966227
-0.10353
-0.084657
-0.115559
-0.145448
-0.128105
-0.13265
-0.165717
-0.163113
-0.151526
-0.174377
-0.185119
-0.157063
-0.164694
-0.193494
-0.166067
-0.145527
-0.176006
-0.173285
-0.134593
-0.137594
-0.162013
-0.137387
-0.112908
-0.132043
-0.129927
-0.0971873
-0.0991766
-0.10615
-0.0813317
-0.0677749
-0.0765413
-0.0630349
-0.0363022
-0.0376047
-0.0636378
0.0347132
0.179459
0.102463
-0.1715
-0.30491
-0.111368
0.0183468
-0.00183609
-0.00759639
-0.0233289
-0.00794015
-0.000923513
-0.028578
-0.0275547
-0.00500482
-0.0198476
-0.0421229
-0.0226553
-0.0107899
-0.0423202
-0.0474452
-0.0201321
-0.0297661
-0.0593349
-0.045343
-0.021072
-0.0496249
-0.0641416
-0.0340348
-0.0327237
-0.0607624
-0.0559649
-0.0337731
-0.046087
-0.0610592
-0.04474
-0.0383575
-0.0492162
-0.048549
-0.0425879
-0.0481752
-0.0480901
-0.0418061
-0.0488657
-0.0441688
-0.0306138
-0.0417149
-0.0466598
-0.0293402
-0.0264009
-0.042526
-0.0322372
-0.00879358
-0.0256608
-0.0339993
-0.0065414
-0.00446095
-0.0243715
-0.0104538
0.0130617
-0.00737747
-0.0117791
0.0183239
0.0132396
-0.00283218
0.0213553
0.0361753
0.00967772
0.0138392
0.0453098
0.0299655
0.0107931
0.041342
0.0600507
0.0282564
0.0240326
0.0604752
0.0524978
0.026924
0.048577
0.0675807
0.0531898
0.0439561
0.0578381
0.0587909
0.0453735
0.0487611
0.050312
0.0415133
0.0411549
0.0446415
0.0308735
0.0246058
0.0372538
0.0284517
0.0104295
0.01706
0.0244475
0.00871794
-0.0315751
0.124254
0.314843
0.171698
-0.220257
-0.380437
-0.0930351
0.0398853
-0.0417824
0.00426651
0.0259031
-0.0068439
-0.0268951
0.0134654
0.0328096
-0.0170082
-0.0216331
0.0287314
0.0241672
-0.0292145
-0.015068
0.0440556
0.0122385
-0.0365537
0.0104716
0.0490217
-0.00353862
-0.0342832
0.0302297
0.0447891
-0.0239968
-0.0185167
0.0527856
0.0352856
-0.0263168
0.00917059
0.0602178
0.0121549
-0.0283738
0.0255487
0.0537165
-0.00307735
-0.016249
0.042976
0.0382704
-0.0222995
-0.00712998
0.0434228
0.0182504
-0.0274236
0.00872525
0.0449682
-0.00329379
-0.0281724
0.0227443
0.0313062
-0.0243313
-0.0188849
0.0311464
0.00665345
-0.0332514
0.000584152
0.0264809
-0.0159588
-0.0283891
0.0115264
0.00200166
-0.031695
-0.0100673
0.0108274
-0.0193814
-0.0213155
0.00611662
-0.0170549
-0.0349428
-0.00447695
0.00229005
-0.0296977
-0.01853
0.0210849
-0.00700816
-0.0351275
0.0091247
0.0181161
-0.0198069
-0.00932378
0.0227755
0.00355697
-0.018223
0.00927874
0.00914925
-0.0161951
-0.00167143
0.01168
-0.0096555
-0.0122875
0.0123148
0.00161711
-0.0216654
0.0132222
-0.0232384
0.144603
0.429649
0.250331
-0.266976
-0.473235
-0.152055
0.0406437
-0.0145635
0.00492082
-0.00696613
-0.00383076
0.000833967
0.00087596
-0.00940464
-0.015043
0.00676396
-0.00216226
-0.0217921
-0.00414225
0.0140781
-0.00784226
-0.0292402
0.00517695
0.0144727
-0.0308929
-0.0245163
0.0211338
0.00499406
-0.035298
-0.00272904
0.028978
-0.0135681
-0.0335736
0.0139308
0.0191688
-0.0259014
-0.00871635
0.0305121
0.00185729
-0.0248083
0.00906958
0.0177854
-0.0181366
-0.0108348
0.0207459
0.0046448
-0.0167161
0.00467669
0.0122586
-0.0103454
-0.00940287
0.00553555
-0.00166544
-0.00805962
-0.000327714
0.000449517
-0.00255746
0.00044441
-0.00456205
-0.00820433
0.00181487
-0.00343004
-0.0146541
0.00264778
0.0109281
-0.013077
-0.0130258
0.0123814
-0.000119679
-0.0290553
-0.00461785
0.0200114
-0.0104397
-0.0186385
0.0103344
0.0137223
-0.0128799
-0.010712
0.0190953
0.0137478
0.00177575
0.0156301
0.0203109
0.0164125
0.0135657
0.0121403
0.0123078
0.0112949
0.0150505
0.0100826
0.0054331
0.0138105
0.0125303
0.00199867
0.00233055
0.00841397
0.00450612
-0.0077061
0.0244414
-0.0413547
0.178664
0.570519
0.328302
-0.316574
-0.569347
-0.205988
0.0421529
0.0125411
0.00142841
-0.0357194
0.00567518
0.02318
-0.0178481
-0.0265238
0.0169666
0.0225832
-0.0304384
-0.0199808
0.0286872
0.00231556
-0.041382
-0.00460696
0.0353194
-0.0112341
-0.0359849
0.0194939
0.0293408
-0.0310438
-0.0293712
0.0314405
0.0148323
-0.0364536
-0.00553576
0.0418519
0.00513979
-0.0339425
0.00909261
0.034908
-0.00911027
-0.0256465
0.0202575
0.0304252
-0.0155083
-0.0157969
0.0259425
0.0182618
-0.0256696
-0.0126283
0.0301734
0.00470497
-0.0315134
0.00535915
0.0316521
-0.0142838
-0.0323948
0.0178841
0.0170235
-0.0313377
-0.00972945
0.0311811
-0.000121721
-0.0284148
0.00855778
0.0152245
-0.0251709
-0.0130887
0.0168771
-0.0086477
-0.0199947
0.011949
0.000932034
-0.0328173
-0.00404152
0.0191619
-0.0256538
-0.0250678
0.0282381
0.0149453
-0.0265409
0.00495562
0.0431798
0.000980681
-0.0167832
0.0310225
0.0248191
-0.0114608
0.0119424
0.0292233
-0.000922753
-0.0014013
0.0218598
0.00433112
-0.0130581
0.014057
0.0164565
-0.0146743
0.00392111
0.016633
0.0186004
-0.0662373
0.244271
0.716521
0.398764
-0.366097
-0.645653
-0.190389
0.0594606
-0.0351538
-0.00188117
0.0146185
0.0012128
-0.0226247
-0.00105788
0.019585
-0.00807451
-0.0292483
0.00230701
0.0228026
-0.0195826
-0.0302756
0.0206556
0.0233328
-0.0354673
-0.0249494
0.0379513
0.00620084
-0.0498457
0.000708033
0.0469275
-0.0148499
-0.0484847
0.0256659
0.0386335
-0.0403433
-0.0274277
0.048079
0.0173303
-0.0443278
0.0067657
0.0509972
-0.0108915
-0.0319367
0.0293706
0.0307713
-0.0291159
-0.0116542
0.0394474
0.00641606
-0.0268657
0.00614617
0.0206318
-0.0130721
-0.0214966
0.00963635
0.0102386
-0.00902404
-0.00807112
0.00427077
0.00582731
-0.012482
-0.0139892
0.00680159
0.0101178
-0.0138238
-0.0150331
0.0132023
0.00132568
-0.0304519
-0.0137709
0.0157532
-0.00725853
-0.0310155
-0.00350649
0.00976531
-0.01306
-0.0170827
0.00372883
0.0148781
0.00574836
0.00254238
0.0134641
0.0185339
0.0161651
0.00958462
0.00923195
0.016478
0.0137746
0.0045612
0.00528456
0.0112351
0.00866644
0.0060132
0.00542826
0.00507336
0.00517355
0.000830089
0.00754775
-0.000506913
0.0221689
-0.0670735
0.28113
0.839821
0.477937
-0.412629
-0.719864
-0.212017
0.0662485
-0.0381234
0.00438896
0.0163749
-0.0114467
-0.021895
0.00950229
0.00805522
-0.0206297
-0.0139556
0.0187723
0.00109398
-0.0299011
0.00168763
0.0188084
-0.0167872
-0.0264441
0.015745
0.0168424
-0.0285091
-0.0113515
0.0283463
-0.00156228
-0.0325269
0.00143614
0.0229646
-0.0130841
-0.0245309
0.0152244
0.0202786
-0.0114569
-0.00768856
0.0173213
0.0131532
-0.00788343
-0.00147391
0.012893
0.0122159
-0.00240549
-0.00707629
0.0125603
0.006739
-0.0158155
-0.00622441
0.0185803
0.00253145
-0.0234373
0.00579692
0.0175092
-0.0195459
-0.0185047
0.0196395
0.00904323
-0.024909
0.00229164
0.0182317
-0.0188482
-0.0163752
0.0151556
-0.00414579
-0.0254815
0.0114813
0.00640138
-0.0396926
-0.015492
0.0244503
-0.0169753
-0.046793
0.0186896
0.0311472
-0.0334222
-0.0132772
0.0478559
0.0225364
-0.0194471
0.0189344
0.0428817
-0.00375157
-0.0045931
0.0315565
0.0104372
-0.00729574
0.0222526
0.0183207
-0.0124194
0.00642893
0.0239925
-0.00729437
-0.00719322
0.0207737
0.0114291
-0.0162117
0.0335683
-0.06714
0.311052
0.976253
0.564335
-0.460014
-0.816821
-0.289341
0.0606596
0.00757882
0.00344454
-0.0330871
-0.00277123
0.0283737
-0.00833053
-0.0365573
0.0117924
0.0268357
-0.0229655
-0.0356872
0.020463
0.0259542
-0.0420893
-0.0257948
0.0433113
0.0107565
-0.0523594
-0.00258627
0.053894
-0.0161214
-0.0598806
0.0241018
0.0476687
-0.0450931
-0.0435401
0.0524934
0.0289332
-0.0595975
-0.0123397
0.0649363
0.00193226
-0.048946
0.0256144
0.057169
-0.0237328
-0.0316985
0.0437104
0.0250312
-0.0376397
-0.00676665
0.0419081
-0.00121325
-0.0354921
0.0103141
0.0253098
-0.0136483
-0.0215235
0.0121401
0.0141446
-0.0170812
-0.0165925
0.00944262
0.0121572
-0.0170962
-0.0178588
0.0128905
0.00553522
-0.0278829
-0.0220123
0.0128758
-0.00120786
-0.0301428
-0.0166166
0.0020358
-0.00642182
-0.0252438
-0.0111914
0.00890631
0.0154847
0.0125066
0.00192127
0.0222009
0.0301917
0.0051214
0.00140264
0.0184112
0.0222852
0.00569428
0.00530972
0.0170835
0.00787324
0.00179686
0.0091382
0.00471022
0.00119704
0.00681597
0.00945069
-6.4268e-05
0.00237065
0.00517662
0.0309717
-0.0994686
0.376426
1.14078
0.642391
-0.509126
-0.906449
-0.296101
0.080819
-0.0187157
-0.00522861
-0.00325097
0.00508802
-0.00366256
-0.0131723
-0.00198265
0.00785132
-0.0150907
-0.0149499
0.010702
0.00660254
-0.0206746
-0.0100269
0.0217727
-0.00430568
-0.0337758
0.00428211
0.025797
-0.0201748
-0.0254927
0.0282173
0.0169001
-0.0370173
-0.0150044
0.0294386
-0.00622534
-0.0376115
0.0111174
0.0322076
-0.0101284
-0.0116671
0.0276896
0.0121841
-0.0142826
0.0079879
0.0174441
-0.0035874
-0.00257691
0.0130775
0.0024501
-0.00475836
0.00463238
-0.00201995
-0.00480466
0.00458213
-0.00258373
-0.00869732
0.00886286
0.00760554
-0.0146136
-0.00289397
0.0106934
-0.0145116
-0.0169568
0.0140236
-0.00312442
-0.0309717
0.00863661
0.0154459
-0.0433824
-0.0332904
0.0291895
-0.00759249
-0.0670526
-0.00302466
0.0449413
-0.0204149
-0.0379037
0.0421962
0.049507
-0.0193291
0.00233149
0.0492278
0.0159705
-0.00788297
0.0224306
0.0238419
-0.00786915
0.00985562
0.0261606
-0.00672923
-0.00353277
0.0284554
0.00584002
-0.0128416
0.0129122
0.0176234
-0.00943092
-0.000861445
0.0141084
0.0318145
-0.121589
0.429211
1.28781
0.723785
-0.554387
-0.972837
-0.283006
0.0948602
-0.0569152
0.000973685
0.0287013
-0.0106086
-0.0367722
0.00761865
0.0268936
-0.0209514
-0.0317865
0.0233861
0.0219156
-0.0366251
-0.0260686
0.0344858
0.00795007
-0.0499662
-0.00308191
0.0479139
-0.0109019
-0.0508918
0.0215717
0.044504
-0.0425834
-0.0444953
0.0455618
0.0254037
-0.0601602
-0.0200737
0.0616369
0.00456432
-0.0598481
0.0114057
0.0616059
-0.0117554
-0.0380482
0.0420608
0.044979
-0.0300058
-0.0169219
0.0418439
0.0120339
-0.0392729
0.00447036
0.0403705
-0.0070822
-0.0265065
0.0133604
0.02061
-0.0209622
-0.0226245
0.0135699
0.0131699
-0.0134564
-0.0173718
0.00895838
0.00727142
-0.0257305
-0.0275793
0.000308888
0.00259337
-0.0240662
-0.0283311
-0.0113322
-0.00552845
-0.0182463
-0.0305422
-0.0110163
0.0240205
0.0260975
-0.000276774
0.0143764
0.0510691
0.0250019
-0.0153991
0.0124567
0.0356157
0.00467791
-0.00191474
0.0205317
0.0146679
0.000520196
0.0107741
0.0113176
-0.00345964
0.000778539
0.0154343
-0.00117358
-0.0063274
0.0150664
0.0119259
-0.0156008
0.036432
-0.111994
0.45928
1.42522
0.817703
-0.597762
-1.05538
-0.35326
0.0802403
-0.015422
0.0136204
-0.0219197
-0.00944105
0.0192301
0.00130086
-0.0270122
-0.00769275
0.0211555
-0.0069076
-0.0334029
0.00614223
0.0284362
-0.0155242
-0.0358704
0.0190908
0.0288615
-0.0423805
-0.0310391
0.0441685
0.0133999
-0.0535497
-0.00148813
0.0589235
-0.0159802
-0.0674179
0.0213044
0.0432119
-0.0472103
-0.0412187
0.0535116
0.0330325
-0.0438646
0.00472008
0.052976
-0.00735061
-0.0325417
0.0287112
0.032133
-0.0233269
0.000118744
0.0311759
-2.299e-05
-0.0194058
0.000455676
0.0110344
-0.00406209
-0.0024503
0.000946146
0.00491455
0.00673893
-0.0167084
-0.0135582
0.010566
-0.00506943
-0.035707
0.00221906
0.0285111
-0.0412909
-0.0537994
0.0227746
0.00969613
-0.0813332
-0.0434786
0.0490839
-0.00282686
-0.0522892
0.0246375
0.0757811
0.0105852
-0.0174654
0.0409182
0.0360117
-0.00501902
0.0135819
0.0270429
0.00187414
0.00676865
0.0272414
0.0015906
-0.0112013
0.0208662
0.0166135
-0.0114739
0.00171322
0.0237171
0.00055786
-0.00943719
0.0113375
0.010208
-0.0175435
0.0388021
-0.126299
0.514408
1.59698
0.909317
-0.645036
-1.15396
-0.393686
0.0965542
-0.00452967
0.00224851
-0.0304251
0.00651764
0.0165533
-0.0209826
-0.021267
0.0147298
0.0122499
-0.027041
-0.0128665
0.0269768
-0.00102062
-0.0344482
0.000482148
0.0278016
-0.0160873
-0.0368327
0.0205446
0.0283798
-0.0347376
-0.0222108
0.0397659
0.00937694
-0.0491053
-0.00771841
0.0445762
-0.0151581
-0.0550016
0.011636
0.0426588
-0.0199347
-0.0378312
0.0350747
0.0429191
-0.0152501
-0.00797705
0.0399352
0.0240409
-0.0269859
0.00147174
0.0358623
-0.000230524
-0.0201421
0.0157829
0.0274252
-0.0168805
-0.0195956
0.0126614
0.00712038
-0.0166416
-0.014507
0.00892306
0.00397246
-0.0147631
-0.0237799
-0.0145284
-0.00333003
-0.0158834
-0.0318197
-0.0365077
-0.0131272
-0.00819376
-0.042322
-0.0435073
0.0147986
0.0567294
0.00562641
-0.00182381
0.0668474
0.0562297
-0.0155675
-0.0119639
0.0478671
0.024283
-0.0152894
0.0182437
0.023513
-0.00352182
0.00617197
0.0195305
-0.000843403
-0.00607309
0.0203059
0.0075363
-0.0162274
0.00555062
0.0197468
-0.0103773
-0.00568635
0.00855503
0.0436586
-0.169419
0.575591
1.77349
0.996289
-0.69097
-1.22392
-0.36485
0.120569
-0.0620719
-0.00467561
0.0256396
0.00209651
-0.0393539
-0.00133994
0.0343667
-0.0138339
-0.0388662
0.0112181
0.0315121
-0.0262223
-0.0391201
0.0295706
0.0320612
-0.0446836
-0.0302984
0.0499507
0.0107978
-0.0710289
-0.00710911
0.0687916
-0.0155532
-0.0706664
0.0390117
0.065114
-0.0640773
-0.0704658
0.060366
0.035549
-0.0848338
-0.0213717
0.0863568
0.0119447
-0.0630198
0.0294392
0.0678916
-0.0299185
-0.0258233
0.0545227
0.0243947
-0.0368726
0.00443888
0.0402779
-0.0061068
-0.0221824
0.00982138
0.0177931
-0.00264712
-0.0162507
-0.00573177
0.0121915
-0.00542943
-0.0421276
-0.00896969
0.0303618
-0.0307477
-0.0717685
0.00778867
0.0332476
-0.0782856
-0.0890528
0.0218385
0.0153482
-0.0606273
-0.00585902
0.098245
0.0594813
-0.00732541
0.0176571
0.0406318
0.0146296
0.00146862
0.019925
0.00982917
0.00914924
0.0323638
0.00704071
-0.013123
0.0150173
0.0219797
-0.00559749
-0.00594699
0.0177494
0.00837739
-0.00807318
0.00207039
0.00974273
-0.00457469
-6.4848e-05
-0.00730729
0.0454484
-0.171747
0.621928
1.93022
1.09503
-0.731667
-1.28543
-0.40362
0.105493
-0.0435416
0.0167187
0.00109755
-0.0135975
-0.00601571
0.0103922
-0.00814152
-0.0222362
0.00429047
0.0123452
-0.0134565
-0.0157719
0.0165803
0.0103266
-0.0255928
-0.013185
0.0230072
0.00129945
-0.0375009
-0.00221099
0.0322065
-0.01823
-0.035576
0.0280778
0.0338636
-0.0339267
-0.0279679
0.0330539
0.00362823
-0.0602445
-0.023579
0.039086
0.0104048
-0.0290646
0.00813047
0.0393282
0.0131538
-0.00589932
0.0185905
0.0306608
0.00531483
-0.00154011
0.0214665
0.019316
-0.00920796
-0.00419366
0.0206927
0.00370212
-0.0168529
-0.00294375
0.00576123
-0.00879548
-0.0167327
-0.0129217
-0.0220348
-0.0190259
-0.00136661
-0.0219702
-0.0609913
-0.0425832
-0.0039831
-0.0453539
-0.0918007
-0.0146305
0.0875938
0.0467302
-0.0119605
0.062124
0.10205
-0.00429024
-0.0466912
0.0396728
0.0528357
-0.00680451
0.00488569
0.0324452
0.00225107
-0.00482492
0.0238828
0.00617401
-0.0164238
0.0171973
0.0233135
-0.0172427
-0.00836651
0.0246093
-0.000601142
-0.0221959
0.0070574
0.0196802
-0.0313714
0.0419557
-0.16465
0.669774
2.09729
1.19778
-0.773516
-1.37536
-0.475388
0.105393
0.00106052
0.00944825
-0.0460879
-0.000493212
0.0332766
-0.0134256
-0.0380098
0.0165296
0.0307821
-0.029997
-0.0336554
0.0271855
0.0247176
-0.0428339
-0.0237087
0.0492273
0.0102584
-0.0607286
-0.00677412
0.0570881
-0.0199542
-0.0772373
0.0292734
0.0656935
-0.0529001
-0.050217
0.0763157
0.0405756
-0.101433
-0.0447801
0.0840688
-0.00361804
-0.10452
0.0115802
0.102359
-0.0134784
-0.0527304
0.0624537
0.0536875
-0.0441044
-0.00934115
0.0651846
0.00767524
-0.034006
0.0282272
0.0379607
-0.00869167
-0.0192873
0.00631589
0.0109292
-0.0134165
-0.0343959
-0.0172446
0.0246255
-0.0193245
-0.0838679
-0.0225661
0.03956
-0.0534071
-0.128035
-0.0307157
0.0138489
-0.0597487
-0.0336615
0.101258
0.131357
0.0365985
-0.00317026
0.0222292
0.0289732
0.0158499
0.00095759
0.00180541
0.0184084
0.0383769
0.0153706
-0.0162642
0.00906019
0.0266441
0.0010275
-0.00703442
0.0119322
0.0104443
-0.0022316
1.59589e-05
-0.000335246
-0.00253734
0.000960424
-0.00481656
0.001003
-0.0131795
0.0533635
-0.202135
0.733591
2.29236
1.29421
-0.818178
-1.45874
-0.461532
0.139474
-0.046996
-0.00833664
0.012062
0.012258
-0.0236822
-0.0145834
0.0204716
0.00348058
-0.0326939
-0.00402528
0.0310877
-0.0095602
-0.0358398
0.00909548
0.0325142
-0.0174393
-0.0380048
0.0251599
0.030397
-0.0483694
-0.037614
0.0422504
0.0157853
-0.0626265
-0.000604912
0.081528
-0.0068571
-0.0705146
0.0196955
0.0496127
-0.0637354
-0.0877029
0.0326283
0.0473885
-0.0307021
-0.0170833
0.0483151
0.0294726
-0.0100282
0.0279102
0.0437265
0.0130046
0.00136291
0.0226147
0.0317709
-0.00399703
-0.00982815
0.0183236
0.0172438
-0.01858
-0.0197481
0.00293446
-0.0278852
-0.0431369
-0.00444936
-0.000252571
-0.0714668
-0.083574
-0.00774853
-0.0437408
-0.151758
-0.0960049
0.0972858
0.12349
0.0151561
0.0591747
0.141281
0.040528
-0.0847421
-0.00982255
0.0767424
0.0162221
0.00331943
0.0335995
0.00964988
-0.00614373
0.0198681
0.0159833
-0.0227624
0.00425149
0.0365292
-0.0055427
-0.0243877
0.0185344
0.0171773
-0.0273146
-0.00932439
0.0223752
-0.0123836
-0.0173247
-0.00287212
0.0609144
-0.236118
0.793745
2.4773
1.39525
-0.857145
-1.50763
-0.454803
0.139189
-0.0703539
0.00794646
0.0265125
-0.0144446
-0.0306286
0.0157685
0.0189673
-0.0263675
-0.0203048
0.0252119
0.0104192
-0.0349601
-0.00953885
0.0321304
-0.00481208
-0.0423161
0.00333894
0.0417933
-0.0141667
-0.0478141
0.0231717
0.032121
-0.058073
-0.0495669
0.0556592
0.0330565
-0.0586928
0.0103648
0.0872045
-0.0259226
-0.120161
-0.00766146
0.0779549
-0.0481334
-0.0894919
0.0578091
0.0883002
-0.0309109
-0.0241649
0.0772167
0.0257922
-0.0411845
0.0323901
0.0621908
-0.00481393
-0.0092931
0.0407604
0.0158909
-0.0253635
-0.0237808
-0.0150074
-0.000676848
-0.0209996
-0.0737892
-0.0533348
0.0310418
-0.0172634
-0.142497
-0.116065
-0.0502369
-0.0798227
-0.0551829
0.122114
0.232748
0.141897
0.00224984
-0.042978
0.0117608
0.0358775
-0.00438503
-0.01867
0.0197875
0.068222
0.0271618
-0.0261387
-0.00200328
0.0242842
0.00957258
-0.00215998
0.0126533
0.00676733
0.000585083
0.00606434
-0.00686457
-0.0104426
0.00559167
-0.00119522
-0.0158955
-0.0040869
0.0123739
-0.0230857
0.049953
-0.226674
0.854605
2.65452
1.50589
-0.892259
-1.57584
-0.534471
0.117193
-0.0113475
0.0225347
-0.0381268
-0.0140061
0.0360603
0.00151469
-0.0416296
0.00577114
0.0400306
-0.019682
-0.0470116
0.0203647
0.0344366
-0.0363047
-0.0377042
0.0434527
0.0332341
-0.0576169
-0.0289246
0.0625622
0.0101385
-0.0847719
-0.00828213
0.0757656
-0.0322486
-0.0903554
0.0632753
0.107009
-0.0575649
-0.0677559
0.0781664
0.0159219
-0.157198
-0.0893698
0.0864896
0.0443641
-0.05217
0.0293671
0.0817013
0.00264815
-0.0084657
0.0585333
0.0516805
-0.00137781
0.0121665
0.0532816
0.0343699
-0.0167177
-0.011268
0.0214741
-0.0167718
-0.0622419
-0.0124306
0.0194189
-0.0751126
-0.129832
-0.0405537
-0.0406344
-0.224928
-0.24004
0.0650033
0.243033
0.120218
0.0650522
0.156873
0.0892484
-0.104171
-0.0864619
0.0647275
0.0709691
0.0263546
0.0313367
0.00656254
-0.0184533
0.0225814
0.0264793
-0.0209402
-0.00539289
0.039266
0.0125747
-0.0338957
0.000439665
0.0288845
-0.0161328
-0.0289009
0.0150829
0.00309436
-0.0278281
-0.00365518
0.0134649
-0.0308499
0.0555656
-0.237032
0.910734
2.84343
1.61178
-0.930432
-1.66281
-0.554832
0.14755
-0.0227333
-0.00217466
-0.0147743
0.0160519
0.00622461
-0.025399
-0.00509891
0.0189235
-0.00970218
-0.0209674
0.0120226
0.01739
-0.0247904
-0.0216325
0.0178886
0.00442248
-0.026792
-0.010229
0.0313316
0.0108179
-0.0383832
-0.00621428
0.0312448
-0.0261089
-0.0657638
0.00993273
0.0571602
-0.0209271
-0.020141
0.0816527
0.0436228
-0.108141
-0.106689
0.0414949
0.0456368
-0.0791071
-0.0509164
0.0785739
0.0524622
-0.0340387
0.0321433
0.0806699
0.00217022
-0.0022278
0.0731233
0.0411938
-0.0251953
0.0123977
0.0226927
-0.0291806
-0.0446635
-0.0631257
-0.0751754
-0.00798381
0.0215676
-0.101925
-0.2045
-0.2097
-0.205553
-0.0765256
0.202122
0.399047
0.327373
0.061632
-0.12562
-0.0775872
0.043689
0.00400189
-0.0652963
-0.00235666
0.0990465
0.0818461
-0.0194791
-0.0270691
0.0213006
0.00701685
0.0021673
0.021149
0.00222139
-0.00339739
0.0196958
-0.00133031
-0.0289739
0.00255394
0.00972282
-0.0234969
-0.019175
0.0144976
-0.000923561
-0.01915
-0.0141528
0.0768069
-0.281081
0.971458
3.04517
1.71573
-0.965922
-1.71044
-0.513065
0.171788
-0.0808499
-0.00691165
0.0354427
0.000533355
-0.0432348
0.00845008
0.0450259
-0.0178058
-0.0439541
0.0255365
0.0294594
-0.0417889
-0.0343756
0.0419231
0.022327
-0.0624081
-0.0193518
0.0615091
0.00664077
-0.0685447
0.0080826
0.0849815
-0.0304078
-0.102239
0.0283538
0.0589344
-0.086785
-0.0605942
0.148283
0.0994
-0.100055
-0.0260784
0.0876136
-0.0877338
-0.24968
-0.047956
0.154001
0.0404895
-0.0231326
0.0860469
0.0776836
-0.0293988
0.00652824
0.0854378
0.0533654
0.0176689
0.0399424
0.0614021
0.00494868
-0.0551712
-0.012523
0.0247854
-0.0709536
-0.172045
-0.0894737
-0.0702848
-0.365887
-0.507363
-0.0257642
0.464377
0.362529
0.134188
0.13489
0.0931031
-0.120304
-0.200211
-0.00423966
0.121215
0.114911
0.0840966
-0.00252255
-0.0481859
0.000271338
0.0287418
-0.016741
-0.0138938
0.0489292
0.035363
-0.0243698
-0.0201018
0.0218409
-0.00298116
-0.0388274
-0.00206147
0.00925219
-0.0188793
-0.016256
0.00494982
-0.00968929
-0.010955
-0.0114054
0.0705973
-0.297721
1.0438
3.24066
1.82586
-0.993149
-1.74899
-0.565272
0.137452
-0.039612
0.0317136
-0.00933452
-0.0200576
0.0138812
0.015429
-0.0259422
-0.0143784
0.0305153
0.0059881
-0.0418538
-0.000243136
0.0362581
-0.0224235
-0.0432725
0.0184141
0.0342433
-0.0368246
-0.0400563
0.0397625
0.0352225
-0.0381658
-0.0233759
0.052815
0.00459549
-0.102411
-0.0426181
0.0661351
0.0150034
-0.0482332
0.08106
0.144539
-0.0614911
-0.196627
-0.0694713
0.0785065
0.0187785
-0.0793758
-0.00113898
0.0581419
-0.00591817
-0.00626207
0.0981484
0.0865496
-0.000766171
0.0600682
0.0938723
-0.0106844
-0.0519175
-0.0173971
-0.0571572
-0.0522903
0.0487079
-0.0231866
-0.297312
-0.56884
-0.550217
-0.0388136
0.527093
0.733594
0.584693
0.167644
-0.24565
-0.26436
0.0039399
0.0344324
-0.111071
-0.085123
0.112684
0.176461
0.0266808
-0.0601634
-0.0115248
0.0157093
0.0114437
0.0390203
0.0117232
-0.0265448
0.0252102
0.0168782
-0.0451855
-0.0153432
0.0274749
-0.0159021
-0.0433513
0.0095251
0.0126174
-0.0285368
-0.0136006
0.0213174
-0.0256772
0.0601286
-0.294001
1.105
3.42736
1.93588
-1.02056
-1.81793
-0.618816
0.146305
-0.00788799
0.0129285
-0.0419964
0.00784425
0.0357624
-0.0160452
-0.0306106
0.0240437
0.0231437
-0.0327637
-0.0183656
0.0339763
0.00425966
-0.0492148
-0.00510046
0.03657
-0.0170289
-0.0512782
0.0166434
0.0536159
-0.0242753
-0.0502461
0.0515327
0.0614039
-0.0716672
-0.0769609
0.0463505
-0.00332329
-0.116749
0.0360219
0.213261
0.0561047
-0.0925429
0.0288669
0.0152398
-0.262869
-0.309713
0.0407109
0.221726
0.0608895
0.0560728
0.150293
0.0490529
-0.034197
0.0299782
0.0550707
0.0139239
0.0217337
0.0674256
0.0455838
-0.097544
-0.236617
-0.207678
-0.25164
-0.73524
-0.951188
0.0131124
0.968582
0.76667
0.216186
0.0186662
-0.0196107
-0.163253
-0.296746
-0.131075
0.122755
0.242207
0.241285
0.0653073
-0.119942
-0.070295
0.011163
-0.0154041
-0.00295705
0.0494025
0.0539977
-0.00314752
-0.0305738
0.0102489
0.00734152
-0.0308667
-0.0232805
-0.00427733
-0.0153383
-0.0171446
-0.00344756
-0.010235
-0.00841353
0.00255026
0.000165895
-0.037246
0.0871295
-0.310273
1.14687
3.60882
2.03906
-1.04883
-1.87287
-0.579372
0.191155
-0.0671255
-0.0118186
0.0231178
0.0202183
-0.0345634
-0.00991523
0.0453456
0.00179614
-0.0480252
0.00656754
0.0463926
-0.0321322
-0.0506185
0.0397655
0.0368058
-0.060531
-0.0420951
0.05874
0.0156439
-0.0849713
-0.0119565
0.0907994
0.0156121
-0.0726508
0.0259718
0.0860683
-0.0822123
-0.160717
0.0208276
0.109197
-0.0432283
-0.0248063
0.227325
0.142754
-0.224999
-0.279464
-0.0162897
0.136318
0.0579965
0.00664426
0.022402
-0.043806
-0.11157
0.014753
0.144019
0.0472913
0.0104794
0.147645
0.136355
0.0389509
0.10965
0.0485939
-0.53523
-1.28951
-1.05283
0.498234
1.51275
1.29225
0.791263
0.192862
-0.44118
-0.545213
-0.100093
0.0911218
-0.176545
-0.280184
0.0261173
0.340299
0.204177
-0.0890402
-0.0886233
-0.00558605
0.0236873
0.073372
0.0361479
-0.0382158
0.0128909
0.0470207
-0.0454588
-0.0578515
0.0278609
0.00366457
-0.0593213
-0.0102002
0.0318232
-0.0203371
-0.0313036
0.0137183
0.00123519
-0.0161525
-0.0255384
0.0979481
-0.345897
1.21797
3.81308
2.14465
-1.06815
-1.88445
-0.57838
0.167894
-0.0718241
0.0256381
0.0212552
-0.0139442
-0.017507
0.0208945
0.00845183
-0.0259628
0.00363853
0.0239953
-0.00785354
-0.0267949
0.0150961
0.0134697
-0.0380573
-0.0155173
0.0263392
-0.00193984
-0.0444667
-0.0125281
0.0398841
0.0015252
-0.03991
0.0167436
0.0827512
0.0112882
-0.0889993
-0.0372363
-0.00259054
-0.093686
-0.0590883
0.188751
0.23004
-0.00110514
-0.0112904
0.0591715
-0.170686
-0.492101
-0.361784
0.17776
0.318246
0.149303
0.245226
0.237963
-0.0530453
-0.249807
-0.175142
-0.0805108
-0.150814
-0.334842
-0.527653
-0.88846
-1.53146
-1.12414
0.925078
1.97504
1.00508
-0.0642253
-0.365267
-0.338195
-0.2192
-0.294243
-0.230114
0.082293
0.33285
0.515395
0.376668
-0.130346
-0.301267
-0.135548
-0.0401079
0.0366208
0.104616
0.0801592
0.0214856
-0.0225964
-0.0253447
-0.00309896
-0.01723
-0.0266567
-0.0217859
-0.0196388
-0.0083659
-0.0102865
-0.023812
-0.0148239
0.0133405
-0.00372993
-0.0256763
0.0155596
-0.00963819
0.076266
-0.367298
1.29367
4.00666
2.24874
-1.08335
-1.91572
-0.644354
0.142847
-0.0143897
0.0325492
-0.0454494
-0.0102812
0.0472187
0.00720114
-0.0443452
0.00927215
0.0512198
-0.0285241
-0.046274
0.035261
0.0339706
-0.0548571
-0.0329933
0.064268
0.00202913
-0.0878157
-0.00165086
0.0742181
-0.0300253
-0.103056
0.0394041
0.110079
-0.0295066
-0.0555217
0.103352
0.058658
-0.203684
-0.164512
0.125932
0.115096
-0.11868
0.0248532
0.362602
0.0850821
-0.36826
-0.296662
-0.0010115
0.164825
0.28396
0.405169
0.266125
-0.141803
-0.569837
-0.608943
-0.235849
0.275914
0.574282
0.320988
-0.796828
-1.86739
-0.530542
2.5135
3.0801
1.42747
0.300964
-0.257711
-0.802986
-0.811945
-0.180998
0.189778
-0.201808
-0.661455
-0.446813
0.480449
0.677821
-0.0156953
-0.234186
-0.0619011
0.0512379
0.135141
0.0907267
-0.0673375
-0.0308511
0.0739719
-0.0180221
-0.0857461
0.00260366
0.0290786
-0.0627627
-0.0479372
0.0305276
-0.00333138
-0.0363275
0.00318452
0.0170298
-0.0163799
-0.0135147
0.0145984
-0.037235
0.0901182
-0.353743
1.33321
4.15866
2.34556
-1.10147
-1.96976
-0.638533
0.189319
-0.0355305
-0.00573371
-0.00259402
0.0268814
-0.00656194
-0.0224096
0.0182283
0.0201274
-0.0233586
-0.0142662
0.0352469
0.000771937
-0.043314
0.0134138
0.0379953
-0.0366815
-0.0480581
0.0389585
0.0268685
-0.0729474
-0.0444491
0.0519184
0.0230505
-0.0644864
-0.00823283
0.112376
0.0776534
-0.0535687
-0.0713968
-0.0373475
-0.106677
-0.121433
0.117426
0.330686
0.113196