# vtk DataFile Version 3.0
fluid_state
ASCII
DATASET RECTILINEAR_GRID
DIMENSIONS 100 100 1
X_COORDINATES 100 double
0 1 2 3 4 5 6 7 8 9 10 11 12 13 14 15 16 17 18 19 20 21 22 23 24 25 26 27 28 29 30 31 32 33 34 35 36 37 38 39 40 41 42 43 44 45 46 47 48 49 50 51 52 53 54 55 56 57 58 59 60 61 62 63 64 65 66 67 68 69 70 71 72 73 74 75 76 77 78 79 80 81 82 83 84 85 86 87 88 89 90 91 92 93 94 95 96 97 98 99 
Y_COORDINATES 100 double
0 1 2 3 4 5 6 7 8 9 10 11 12 13 14 15 16 17 18 19 20 21 22 23 24 25 26 27 28 29 30 31 32 33 34 35 36 37 38 39 40 41 42 43 44 45 46 47 48 49 50 51 52 53 54 55 56 57 58 59 60 61 62 63 64 65 66 67 68 69 70 71 72 73 74 75 76 77 78 79 80 81 82 83 84 85 86 87 88 89 90 91 92 93 94 95 96 97 98 99 
Z_COORDINATES 1 double
0
POINT_DATA 10000
SCALARS vorticity float 1
LOOKUP_TABLE default
0.0330112
0.0419662
-0.0420935
-0.207958
-0.277776
-0.341592
-0.489151
-0.586697
-0.624003
-0.731867
-0.866698
-0.918578
-0.975898
-1.10681
-1.19876
-1.23001
-1.31764
-1.43286
-1.47464
-1.51161
-1.61248
-1.68018
-1.68913
-1.74636
-1.83265
-1.84661
-1.84933
-1.92265
-1.97089
-1.94151
-1.95211
-2.0209
-2.01676
-1.95892
-1.97991
-2.02435
-1.96695
-1.89777
-1.92654
-1.93264
-1.83008
-1.76635
-1.79597
-1.75071
-1.62001
-1.58105
-1.59555
-1.49077
-1.363
-1.35851
-1.33125
-1.17784
-1.08975
-1.10598
-1.01511
-0.849546
-0.82348
-0.824818
-0.671889
-0.543254
-0.569736
-0.519241
-0.339582
-0.282794
-0.321519
-0.208087
-0.0535898
-0.0658808
-0.0727581
0.0783547
0.1685
0.118647
0.161584
0.306306
0.323144
0.272237
0.351173
0.451017
0.413531
0.385866
0.471361
0.510388
0.448157
0.449919
0.514254
0.491173
0.419225
0.43644
0.459837
0.383581
0.312119
0.331538
0.306895
0.19664
0.138712
0.146344
0.0436866
-0.087419
-0.00447324
-0.0411224
0.0444954
-0.299947
-0.162777
-0.234195
-0.6673
-0.722978
-0.724513
-1.08675
-1.36095
-1.27722
-1.43726
-1.85757
-1.93046
-1.8546
-2.19209
-2.51573
-2.41083
-2.46725
-2.90096
-3.00747
-2.82687
-3.07762
-3.4621
-3.31681
-3.20703
-3.63053
-3.82389
-3.50827
-3.59182
-4.06146
-3.97714
-3.64016
-3.93797
-4.27364
-3.93837
-3.73457
-4.14696
-4.21703
-3.76582
-3.76788
-4.12833
-3.91705
-3.52067
-3.6929
-3.86082
-3.46149
-3.23381
-3.46705
-3.38793
-2.9366
-2.90318
-3.07981
-2.78366
-2.40575
-2.52225
-2.55271
-2.1358
-1.91596
-2.08193
-1.94362
-1.53636
-1.46866
-1.58403
-1.34326
-1.02537
-1.03016
-1.07894
-0.818694
-0.569672
-0.604061
-0.636261
-0.362726
-0.146032
-0.25311
-0.285405
0.0578424
0.202533
-0.0289126
0.0178904
0.441152
0.403893
0.103241
0.342316
0.719111
0.414531
0.217322
0.647041
0.760578
0.25075
0.337549
0.797511
0.521378
0.037514
0.455731
0.683176
0.0724557
-0.135172
0.624995
0.639136
-0.129914
0.0208033
-0.494698
-0.22485
-0.0299262
-0.374335
-0.255912
-0.0832888
-0.472203
-0.613275
-0.272969
-0.419268
-0.832579
-0.652844
-0.446131
-0.838572
-1.01309
-0.692564
-0.776279
-1.18062
-1.06246
-0.841359
-1.15843
-1.36719
-1.08081
-1.08206
-1.46016
-1.42793
-1.13705
-1.33294
-1.65058
-1.44585
-1.22079
-1.54435
-1.75885
-1.42419
-1.29259
-1.70905
-1.78044
-1.34417
-1.3548
-1.81056
-1.68207
-1.22763
-1.42375
-1.80715
-1.46441
-1.12154
-1.48499
-1.6712
-1.17364
-1.05448
-1.50061
-1.40506
-0.868823
-1.03713
-1.42942
-1.0336
-0.622752
-1.05643
-1.238
-0.62446
-0.4887
-1.06438
-0.92589
-0.257816
-0.465188
-1.0113
-0.528416
0.0065166
-0.53572
-0.85937
-0.0965646
0.106876
-0.638617
-0.563711
0.269744
0.0206671
-0.64359
-0.146934
0.443946
-0.166067
-0.462755
0.263183
0.398914
-0.322296
-0.162355
0.511557
0.212094
-0.369792
0.147323
0.568194
-0.00801276
-0.273432
0.431262
0.44792
-0.232358
0.0215829
0.845875
0.39423
-0.262577
-0.0437703
-0.337461
-0.35268
-0.0346333
0.143639
0.130819
-0.00517014
0.0195845
0.227129
0.146701
-0.0144748
0.179095
0.310777
0.07106
0.0653805
0.362834
0.267817
0.00827807
0.255314
0.456907
0.113114
0.0608199
0.488607
0.388733
-0.0186336
0.284998
0.642694
0.206395
0.0111326
0.564978
0.599438
0.040857
0.206443
0.728839
0.41449
0.0172994
0.448936
0.706718
0.22947
0.133403
0.600797
0.552558
0.135606
0.299114
0.623216
0.365728
0.129213
0.434293
0.548426
0.198776
0.175911
0.512147
0.40761
0.0811913
0.25718
0.50752
0.234186
0.0405521
0.330741
0.416619
0.0963448
0.0688764
0.345068
0.293046
0.030879
0.0994724
0.300469
0.201342
0.00520904
0.0916751
0.260655
0.148288
-0.0507976
0.0801606
0.277932
0.0670305
-0.147128
0.151486
0.309259
-0.0960012
-0.166527
0.309323
0.21649
-0.276147
-0.0181829
0.390587
-0.0628783
-0.327588
0.236123
0.280683
-0.351861
-0.162694
0.424119
0.00967626
-0.459824
0.0296325
0.37395
-0.0469945
-0.311689
-0.107496
-0.155669
-0.515553
-0.467681
0.0623259
0.154221
-0.0801684
-0.178063
0.0941006
0.103688
-0.21311
-0.0882724
0.163028
-0.0688855
-0.228342
0.0499478
0.0748986
-0.206296
-0.125478
0.0855934
-0.0951671
-0.223899
-0.015112
-0.0023997
-0.214257
-0.137456
0.0304212
-0.108581
-0.221842
-0.0493404
0.0150741
-0.161221
-0.190804
-0.0131603
-2.08957e-05
-0.175418
-0.179059
0.0161427
0.00978243
-0.206085
-0.171688
0.0740639
-0.000128092
-0.252952
-0.124248
0.122502
-0.060211
-0.269839
-0.0346113
0.128298
-0.149148
-0.237583
0.0719771
0.0743046
-0.248609
-0.145392
0.160918
-0.0478842
-0.306182
0.00437021
0.180087
-0.206712
-0.275438
0.16863
0.110769
-0.346754
-0.145058
0.300723
-0.0506606
-0.422392
0.0744288
0.332825
-0.27379
-0.354306
0.308021
0.195533
-0.437598
-0.113603
0.410781
-0.0672071
-0.39896
0.199708
0.318002
-0.2923
-0.189299
0.371483
0.0857538
-0.364412
0.031371
0.341856
-0.110043
-0.263218
0.189256
0.200758
-0.24659
-0.0646282
0.249522
-0.120842
-0.0959296
0.0622792
-0.054783
-0.304402
-0.815757
-0.239089
0.245943
-0.180033
-0.0628004
0.193766
0.0173973
-0.173618
0.0650722
0.198848
-0.110366
-0.127644
0.209062
0.100673
-0.216996
0.0205252
0.266931
-0.0845889
-0.214161
0.210561
0.174125
-0.273798
-0.0632778
0.338306
-0.0414783
-0.322785
0.201545
0.326284
-0.265651
-0.198571
0.40107
0.145901
-0.391857
0.0297047
0.448189
-0.0947583
-0.35654
0.247713
0.335207
-0.273995
-0.197578
0.358503
0.135479
-0.332228
0.00377655
0.353146
-0.0738878
-0.288978
0.193681
0.254908
-0.251286
-0.15277
0.325621
0.0737061
-0.337794
0.0423864
0.341507
-0.126029
-0.295031
0.214705
0.247283
-0.25762
-0.170114
0.301757
0.112542
-0.295769
-0.0364208
0.314609
-0.00311697
-0.295003
0.0696685
0.31252
-0.113616
-0.306046
0.184579
0.310411
-0.252986
-0.257881
0.358173
0.21809
-0.388596
-0.0506298
0.467691
-0.0737229
-0.430179
0.270887
0.385835
-0.404889
-0.253281
0.526506
0.101211
-0.550185
0.0554158
0.513894
-0.223449
-0.47932
0.723019
0.611949
-0.139695
-0.407462
-0.886577
-0.200568
0.0943793
-0.182276
0.10607
0.111576
-0.143942
-0.0503375
0.157955
-0.0177482
-0.150638
0.0832745
0.0996245
-0.130806
-0.0369636
0.13122
-0.0508962
-0.12068
0.0882846
0.0330378
-0.158983
0.00207176
0.104788
-0.131611
-0.12369
0.134403
0.0236408
-0.193924
0.0111589
0.163229
-0.0762103
-0.139314
0.0941102
0.0880114
-0.0985965
-0.0505539
0.0816538
0.0326386
-0.0467438
-0.0203271
0.0315893
0.0362523
-0.00119405
-0.0335731
0.000440686
0.052525
0.0143621
-0.0537361
-0.00372972
0.0660137
-0.00839368
-0.064605
0.0312762
0.0514399
-0.0610484
-0.0310777
0.072097
-0.0138646
-0.0937528
0.0424965
0.0759293
-0.102338
-0.0719828
0.1399
0.018125
-0.193464
0.03347
0.216525
-0.122337
-0.217599
0.202666
0.162822
-0.281753
-0.0774339
0.305365
-0.0532956
-0.289529
0.204841
0.250357
-0.268532
-0.0938162
0.371772
0.013239
-0.322499
0.123832
0.266074
-0.180771
-0.132313
0.230836
0.0275407
-0.221603
0.0833358
0.1823
-0.165403
-0.0979101
0.117977
0.336313
0.158122
-0.0525583
-0.459091
-0.983653
-0.591662
-0.041915
0.187512
0.0714761
-0.242949
0.0351951
0.23632
-0.114947
-0.187792
0.19306
0.134304
-0.233585
-0.0406926
0.263226
-0.0433856
-0.24782
0.137576
0.201291
-0.22017
-0.135877
0.260774
0.00884865
-0.315846
0.0678063
0.26718
-0.202843
-0.234134
0.294688
0.169656
-0.350958
-0.0652042
0.400813
-0.0278903
-0.395422
0.146083
0.375702
-0.235626
-0.306131
0.320685
0.234156
-0.355475
-0.129322
0.38235
0.0378532
-0.367082
0.0723051
0.341101
-0.17055
-0.279047
0.264744
0.190537
-0.339048
-0.0854193
0.369149
-0.0395773
-0.377064
0.144119
0.32876
-0.255069
-0.280519
0.311521
0.180218
-0.368444
-0.103849
0.379678
0.00460319
-0.388115
0.0694466
0.378406
-0.153896
-0.38333
0.205036
0.344968
-0.297831
-0.318484
0.365603
0.261741
-0.399377
-0.0978501
0.483045
-0.0330784
-0.472702
0.229222
0.450493
-0.382294
-0.347756
0.519961
0.220959
-0.572394
-0.0404465
0.573934
-0.14084
-0.52075
0.366806
0.364083
-0.171189
0.0108149
0.0676982
-0.570564
-1.33207
-0.660904
0.223202
0.0799535
-0.12345
-0.0318893
0.148172
-0.0401821
-0.121861
0.105802
0.0726136
-0.140659
0.00412824
0.1528
-0.0796288
-0.114486
0.149389
0.0465446
-0.195207
0.040225
0.182121
-0.158958
-0.162603
0.207357
0.0270494
-0.314493
0.0332933
0.288555
-0.162181
-0.258845
0.246343
0.188169
-0.285606
-0.0841756
0.299817
0.00407746
-0.2521
0.0802095
0.21665
-0.0999631
-0.135105
0.13642
0.0923764
-0.11839
-0.0118355
0.125411
-0.0330727
-0.0895757
0.0909442
0.0597167
-0.115418
-0.0150104
0.127197
-0.0199657
-0.125346
0.0415062
0.100706
-0.0702446
-0.0957899
0.0642885
0.0594473
-0.0697365
-0.0559921
0.0372704
0.0426579
-0.00802969
-0.0629033
-0.0183869
0.0934624
0.016683
-0.141251
0.0203015
0.152941
-0.126114
-0.167351
0.244298
0.151086
-0.292189
0.00557454
0.419827
-0.0692325
-0.352394
0.221523
0.258239
-0.302962
-0.0603911
0.370636
-0.115277
-0.335155
0.277624
0.241235
-0.379357
-0.075184
0.412555
-0.0475923
-0.415228
0.5836
0.738713
-0.0112108
-0.716742
-1.48453
-0.309327
0.309941
-0.303492
-0.0350688
0.278027
-0.069619
-0.242396
0.163901
0.176164
-0.220456
-0.0872222
0.248429
0.00629466
-0.233031
0.0860279
0.203585
-0.147937
-0.144388
0.193584
0.0631447
-0.220834
0.00676378
0.180603
-0.1301
-0.192706
0.143868
0.0928212
-0.225421
-0.0400418
0.274234
-0.000279221
-0.280353
0.0777638
0.298556
-0.142363
-0.274803
0.224381
0.244659
-0.275843
-0.176203
0.326331
0.120607
-0.331383
-0.039454
0.337637
-0.0299602
-0.305562
0.125779
0.26545
-0.204517
-0.185464
0.271627
0.0818591
-0.316717
0.0208709
0.305229
-0.145119
-0.294691
0.21644
0.204566
-0.308471
-0.141516
0.332337
0.0271988
-0.362711
0.0565247
0.362759
-0.148903
-0.37066
0.188277
0.321853
-0.287249
-0.317368
0.31903
0.262708
-0.32192
-0.0901607
0.418354
-0.0176324
-0.430065
0.188784
0.429045
-0.330256
-0.374434
0.441688
0.287939
-0.47474
-0.126269
0.493902
-0.0159873
-0.468329
0.190684
0.430984
-0.277643
-0.386506
0.859349
0.779321
-0.0267825
-0.792729
-1.48535
-0.50967
0.00786676
-0.0529976
0.17814
-0.0671977
-0.139153
0.144658
0.0768367
-0.190983
0.0141821
0.200584
-0.107252
-0.15928
0.194618
0.0958425
-0.241173
0.0163047
0.264042
-0.12827
-0.231259
0.23495
0.137505
-0.341945
-0.0485858
0.332563
-0.170236
-0.394025
0.260369
0.306732
-0.383166
-0.199047
0.463137
0.0858753
-0.452628
0.0629572
0.428842
-0.151898
-0.332695
0.244703
0.268507
-0.254624
-0.150812
0.288957
0.0729482
-0.257451
0.0476511
0.235528
-0.127634
-0.159496
0.210444
0.0918612
-0.247306
-0.0101005
0.259682
-0.0757405
-0.271341
0.125094
0.220388
-0.199693
-0.200276
0.2085
0.127426
-0.217302
-0.0845661
0.187437
0.0369409
-0.169917
-0.0297881
0.165021
0.00410692
-0.245854
-0.0541475
0.307173
0.0588047
-0.322615
0.097055
0.492613
-0.102867
-0.419305
0.253634
0.3082
-0.389826
-0.0740087
0.535335
-0.145746
-0.546322
0.37536
0.449075
-0.555905
-0.224967
0.665023
-0.00712436
-0.635003
0.302234
0.422693
-0.0246961
0.180988
0.16273
-0.856062
-1.74363
-0.918745
0.0698208
0.245908
0.00290283
-0.273777
0.112073
0.212229
-0.189547
-0.123834
0.221606
0.0275229
-0.21033
0.0579763
0.174516
-0.10118
-0.104628
0.145302
0.0510091
-0.140917
0.0178885
0.118318
-0.0720699
-0.0735627
0.0812011
-0.0350389
-0.154842
0.0192999
0.0715382
-0.107775
-0.0732804
0.144607
0.111625
-0.119181
-0.0997434
0.145722
0.1132
-0.165949
-0.093407
0.208205
0.0804571
-0.220454
-0.0434628
0.242333
0.0336058
-0.228454
0.0144715
0.238465
-0.0453581
-0.198876
0.110788
0.156815
-0.155278
-0.0881635
0.172416
-0.0102281
-0.196942
0.0617281
0.13174
-0.164428
-0.112145
0.179934
-0.00226171
-0.235462
0.0661481
0.242122
-0.145757
-0.258177
0.159943
0.200114
-0.260308
-0.234767
0.237785
0.191149
-0.179071
0.0317671
0.311071
-0.0948172
-0.330639
0.21423
0.332488
-0.330495
-0.336942
0.363504
0.261865
-0.321452
-0.0923104
0.311358
-0.00439499
-0.264412
0.110255
0.242977
-0.138067
-0.183155
0.228064
0.0185293
0.289645
0.709158
0.18802
-0.994435
-2.08671
-0.711161
0.409561
-0.132513
-0.179732
0.174367
0.123949
-0.241956
-0.023435
0.267511
-0.0942583
-0.240591
0.200893
0.166057
-0.274895
-0.0519442
0.320586
-0.0505093
-0.2895
0.190551
0.241602
-0.291262
-0.137275
0.361163
-0.0138091
-0.407966
0.120863
0.290746
-0.389296
-0.310529
0.468242
0.186612
-0.534927
-0.0210327
0.583899
-0.0976947
-0.512975
0.248918
0.445601
-0.312694
-0.312427
0.390871
0.238839
-0.372104
-0.0926596
0.387853
-0.00507074
-0.315035
0.149881
0.258508
-0.22806
-0.140312
0.300682
0.0272018
-0.345754
0.0682096
0.323623
-0.20125
-0.325188
0.253777
0.229954
-0.320732
-0.156684
0.311696
0.0263116
-0.317062
0.0409358
0.287638
-0.130319
-0.372326
0.027856
0.335352
-0.0155453
-0.284522
0.199193
0.536589
-0.0863329
-0.444769
0.192095
0.323484
-0.373705
-0.102525
0.637035
-0.0673173
-0.75097
0.288192
0.695223
-0.545085
-0.485379
0.776767
0.240425
-0.847431
0.110668
0.806204
-0.376465
-0.775911
1.2313
1.42285
0.0796626
-1.1152
-2.09414
-0.496581
0.249602
-0.3034
0.0741404
0.21334
-0.151473
-0.137913
0.196739
0.0348963
-0.195681
0.057581
0.142046
-0.118614
-0.064487
0.138393
-0.00110278
-0.100609
0.0845694
0.0810213
-0.109911
0.00189023
0.132484
-0.0787724
-0.102689
0.156292
-0.00602728
-0.29602
-0.00384471
0.208473
-0.160337
-0.217701
0.218725
0.22277
-0.145076
-0.132982
0.124945
0.104795
-0.0944845
-0.0928279
0.0827098
0.0999291
-0.0488753
-0.0835022
0.0394345
0.114685
0.0135887
-0.101516
0.00597662
0.135186
0.00351426
-0.11135
0.0147386
0.0775205
-0.042738
-0.0769995
-0.0127151
-0.00888892
-0.00992289
-0.0118294
-0.094946
-0.0561951
0.123136
0.0653984
-0.17528
-0.0854591
0.139983
-0.00356077
-0.254189
-0.111656
0.129197
0.065425
0.0258506
0.27487
0.207335
-0.264156
-0.223049
0.337463
0.211967
-0.430012
-0.298187
0.316027
0.17471
-0.188832
0.0837152
0.160581
-0.190857
-0.0444249
0.243653
-0.0303542
-0.154477
0.116809
0.0990656
-0.150963
0.0164089
-0.034471
0.554343
0.837997
0.237735
-1.17269
-2.17646
-0.936653
-0.0151941
0.13383
0.190021
-0.266022
-0.0917283
0.311548
-0.0308757
-0.314255
0.158098
0.25427
-0.268086
-0.150586
0.325145
0.0224937
-0.324563
0.115192
0.309114
-0.188211
-0.20188
0.298848
0.103146
-0.334294
0.0326777
0.33326
-0.173666
-0.316846
0.214739
0.0721785
-0.504534
-0.0724817
0.565111
-0.0252324
-0.555196
0.205688
0.564551
-0.291376
-0.44086
0.408439
0.361308
-0.411709
-0.21397
0.466941
0.154223
-0.404604
0.0107831
0.402388
-0.092898
-0.282007
0.225858
0.194905
-0.291838
-0.080879
0.306806
-0.0795353
-0.352423
0.155966
0.275156
-0.274559
-0.212309
0.292739
0.0287132
-0.35322
0.0822572
0.33668
-0.245723
-0.480889
0.025859
0.255779
-0.0630399
-0.0976768
0.352485
0.48992
-0.0578078
-0.356823
0.069346
0.202126
-0.260843
0.00592797
0.66632
0.0276878
-0.847538
0.0336407
0.791162
-0.343686
-0.6857
0.676906
0.533444
-0.821155
-0.177945
0.892348
-0.143252
-0.856045
0.459319
0.489381
-0.00800948
0.668397
0.44151
-1.27321
-2.54853
-1.08221
0.297706
0.113654
-0.122978
-0.116217
0.177081
0.0210093
-0.190425
0.0760079
0.143087
-0.159004
-0.0528543
0.184576
-0.0615877
-0.158508
0.146057
0.0927385
-0.17674
0.0337299
0.232167
-0.0980029
-0.186548
0.22736
0.122082
-0.306675
0.0308088
0.341292
-0.290968
-0.466748
0.304457
0.261113
-0.476948
-0.147162
0.561779
0.145159
-0.41351
-0.0423696
0.315836
-0.025618
-0.256391
0.0495361
0.195955
-0.0455632
-0.0873426
0.0659688
0.0390184
0.0110803
0.0683287
-0.00899033
-0.0608549
0.0702048
0.0825354
-0.119129
-0.149206
0.0726532
0.0970213
-0.16657
-0.217047
0.100358
0.223846
-0.079967
-0.219398
0.0787306
0.144372
-0.208827
-0.311976
-0.0596517
0.000768364
-0.0112583
0.322068
0.572207
0.0885174
-0.476948
-0.136797
0.49772
0.119997
-0.59019
-0.322662
0.252104
0.0693791
-0.0548675
0.3676
0.141336
-0.530586
-0.0156615
0.587124
-0.165823
-0.428605
0.396374
0.254426
-0.51946
0.00047317
0.528976
-0.238509
-0.68615
1.28796
1.91065
0.33036
-1.4154
-2.75074
-0.749421
0.471934
-0.310469
-0.132648
0.302657
0.0406979
-0.335286
0.075024
0.309518
-0.203176
-0.234852
0.295323
0.108837
-0.330931
0.0223132
0.294585
-0.131984
-0.221468
0.232786
0.183969
-0.214342
-0.032702
0.251399
-0.0624016
-0.205631
0.154973
0.151395
-0.214527
-0.121989
0.113168
-0.244151
-0.429807
0.236641
0.505173
-0.255565
-0.425653
0.422783
0.420327
-0.427333
-0.271167
0.484171
0.229321
-0.41229
-0.0905608
0.46383
0.0741991
-0.343693
0.105541
0.342393
-0.15316
-0.234292
0.20848
0.104442
-0.290186
-0.0547576
0.222684
-0.0942562
-0.208049
0.108485
-0.0157145
-0.25526
0.133887
0.293851
-0.345796
-0.611108
-0.142189
0.0975898
0.0160488
0.295199
0.563218
0.296021
-0.0928824
-0.158842
-0.0834011
-0.0920608
-0.0790562
0.380942
0.725676
0.0475608
-0.79575
-0.266189
0.557048
-0.130251
-0.673197
0.471545
0.712049
-0.592124
-0.399757
0.739655
0.131387
-0.771966
0.12325
0.686876
-0.351385
-0.904894
1.43503
2.04889
0.361881
-1.49359
-2.71393
-0.883288
0.122811
-0.118762
0.18948
-0.0272791
-0.194945
0.104362
0.157062
-0.198001
-0.0787663
0.25375
-0.0492551
-0.252877
0.177927
0.169914
-0.281723
-0.0542705
0.305072
-0.0611939
-0.252156
0.241953
0.262425
-0.313782
-0.118044
0.444278
-0.0370438
-0.442774
0.284232
0.313543
-0.718741
-0.389781
0.715654
0.102998
-0.761964
0.121817
0.830553
-0.0748012
-0.620506
0.10262
0.42429
-0.179678
-0.335986
0.178963
0.20442
-0.140665
-0.0074672
0.16331
-0.0240987
-0.0295785
0.143803
-0.0137184
-0.194634
0.0343598
0.15572
-0.195528
-0.306287
0.147384
0.31638
-0.104067
-0.232906
0.159759
0.151633
-0.352263
-0.487958
-0.210779
-0.0362481
0.194696
0.730235
0.790825
-0.121476
-0.689505
-0.0748547
0.543247
0.020394
-0.705714
-0.466999
0.0249094
-0.0328883
0.226941
0.814671
0.290735
-0.90218
-0.301446
0.942936
0.0388527
-0.847009
0.374702
0.627832
-0.716952
-0.280654
0.918206
-0.0761688
-1.00518
0.44847
0.46997
0.0709036
1.0808
0.713617
-1.56414
-2.96564
-1.28253
0.133965
0.186133
0.0813558
-0.291972
0.0111464
0.283853
-0.118891
-0.258237
0.211921
0.170229
-0.28205
-0.043695
0.285398
-0.0825233
-0.227113
0.150988
0.113987
-0.180334
-0.0133812
0.230251
0.0336071
-0.0949692
0.0949874
0.0372712
-0.127507
0.0569069
0.115076
-0.0745394
-0.0549727
0.0234049
-0.207229
-0.532972
-0.193474
0.525143
0.31652
-0.447437
-0.164868
0.596648
0.202219
-0.480144
-0.0832411
0.492824
0.161407
-0.323234
0.00956301
0.430833
0.0505735
-0.27701
0.0808197
0.237968
-0.169164
-0.247017
0.105774
0.0926351
-0.203026
-0.20685
-0.12662
-0.0511992
0.21118
0.141658
-0.528187
-0.901917
-0.485751
0.127223
0.491825
0.870168
0.755904
-0.0165743
-0.268012
0.0475937
-0.245742
-0.494852
0.193381
1.0151
0.866938
0.00510814
-0.615938
-0.502142
-0.0386518
-0.205319
-0.465191
0.410406
0.778951
-0.311851
-0.491782
0.475198
0.23143
-0.474696
-0.0297378
0.377967
-0.0696657
-0.462396
0.0505218
0.0804494
0.970217
2.00374
0.753636
-1.70083
-3.28747
-1.07223
0.509803
-0.156129
-0.196852
0.144185
0.170647
-0.233632
-0.115828
0.29015
0.00251463
-0.32906
0.135538
0.295249
-0.283146
-0.179081
0.374749
0.00728339
-0.402508
0.119026
0.325201
-0.21636
-0.173588
0.433381
0.148101
-0.457675
0.105444
0.525913
-0.312053
-0.387728
0.525751
-0.071396
-1.1319
0.131668
1.13148
-0.333807
-0.923485
0.542572
0.955072
-0.349481
-0.747722
0.217247
0.440528
-0.293585
-0.345567
0.20979
0.134937
-0.101411
0.123081
0.115044
-0.199857
-0.0950638
0.202175
-0.0236444
-0.289781
0.0575652
0.369711
0.0454024
-0.208716
0.0368474
0.0320122
-0.497039
-0.844362
-0.486833
0.359848
0.939181
1.11943
0.642279
-0.530498
-0.901577
-0.0410176
0.407397
-0.19455
-0.715587
-0.729242
-0.579688
-0.153447
0.837486
1.48493
0.720036
-1.12092
-0.931912
1.11418
0.650326
-1.10471
-0.166076
0.837269
-0.545948
-0.675892
1.06233
0.421012
-1.27365
0.0184086
1.19731
-0.687254
-1.5778
2.57476
3.57459
0.579669
-1.80626
-3.3297
-0.965031
0.350757
-0.272577
0.0270229
0.186531
-0.0803357
-0.188199
0.129694
0.139659
-0.195885
-0.0726012
0.225409
-0.0368603
-0.201412
0.14438
0.108979
-0.186427
-0.000852697
0.123687
-0.125086
-0.0743784
0.203151
0.133913
-0.055035
0.106438
0.0809117
-0.240013
-0.0102522
0.270778
-0.0979914
-0.134598
0.278241
0.0071901
-0.649396
-0.752003
0.0335433
0.690274
0.0570302
-0.568523
0.20756
0.741531
0.0282743
-0.485448
0.0300243
0.566139
0.316029
-0.182295
-0.0531102
0.262741
0.0315143
-0.234906
-0.000207505
0.175527
-0.189919
-0.507857
-0.332944
0.0335523
0.198671
-0.0970791
-0.860424
-1.34361
-0.55581
0.972984
1.54714
1.33879
0.676248
-0.379197
-0.529291
0.14879
-0.262444
-0.715981
0.570079
1.75591
0.972391
-0.12397
-0.398871
-0.859417
-0.92296
-0.694677
-0.480384
0.780714
1.17438
-0.0272639
-0.526865
0.0900297
0.179893
-0.154835
0.0662814
-0.0112005
-0.13713
0.0754439
-0.217872
-0.196531
0.327969
-0.557746
0.988513
2.54714
0.926061
-1.85459
-3.41759
-1.35408
0.111815
0.102044
0.190132
-0.256223
-0.134592
0.297254
0.0410322
-0.352136
0.0576107
0.349711
-0.203792
-0.302869
0.346525
0.175564
-0.429366
0.0209666
0.413301
-0.209617
-0.373859
0.23633
0.222442
-0.237927
0.0471657
0.485353
-0.100353
-0.37677
0.466081
0.303341
-0.644954
-0.0579895
0.529977
-0.925219
-1.24228
1.25669
1.46112
-1.02209
-1.02193
1.01337
1.06651
-0.553238
-0.834369
0.295682
0.434771
-0.282788
-0.30845
0.0523903
-0.230199
-0.387855
0.0481635
0.190361
-0.155674
-0.0988027
0.332663
0.224569
-0.270974
-0.463564
-0.437794
-0.73274
-1.05457
-0.199139
1.52178
1.80355
0.78555
-0.331086
-1.22648
-0.993119
0.0421712
0.160496
-0.565278
-0.740946
-0.934529
-1.28993
-0.267143
1.86156
2.32
1.40822
-0.879602
-2.14365
0.796526
1.85795
-0.896718
-1.01688
0.275869
-0.216394
-0.650018
0.749365
0.882821
-1.06203
-0.451286
1.23091
-0.215091
-1.65076
0.529069
1.07987
0.511296
1.92821
1.25458
-1.96742
-3.73712
-1.35681
0.422223
-0.0211138
-0.0907856
-0.0587672
0.107397
0.0193139
-0.135295
-0.00172
0.13438
-0.0572788
-0.140421
0.11854
0.0886022
-0.190045
0.0282949
0.214601
-0.152791
-0.123458
0.198602
-0.0838246
-0.307695
0.153064
0.420377
0.0438062
-0.0992664
0.235938
-0.0778113
-0.389999
0.13381
0.212126
-0.194854
0.196916
0.755766
-0.129037
-1.31832
-1.00175
0.156019
0.494438
-0.331906
-0.567432
0.618926
0.924642
0.0998373
-0.40613
0.104994
0.601824
0.170271
-0.532669
-0.224777
0.419476
0.212041
-0.469937
-0.563615
-0.0425484
0.260692
-0.022697
-0.912006
-1.17454
0.654752
2.86724
2.41803
0.905001
0.0766819
-0.583973
-0.516699
0.247091
-0.00196704
-0.478653
0.926929
2.2121
1.0163
-0.523498
-0.57864
-1.51707
-2.10168
-1.37952
-1.25174
1.17542
2.81942
0.49794
-0.570151
-0.335564
-0.0658269
0.587863
0.189472
-0.61669
-0.642372
0.541781
0.201299
-1.03769
0.294123
0.718017
-0.94259
-0.910759
3.57025
4.54006
0.936491
-2.0984
-3.86501
-1.09248
0.506562
-0.320146
-0.0908676
0.260793
0.0435866
-0.315406
0.0129011
0.319837
-0.125279
-0.327073
0.227971
0.263418
-0.350107
-0.141771
0.434272
-0.033666
-0.392243
0.234522
0.261458
-0.360971
-0.26928
0.194735
0.108933
-0.00706071
0.363453
0.230566
-0.377622
0.163671
0.786988
-0.479853
-0.860292
0.634449
-0.032331
-2.28374
-0.792924
2.81817
1.96147
-1.53615
-1.46964
1.24532
1.49112
-0.436193
-0.602934
0.945914
0.996214
-0.503983
-1.47104
-0.923909
-0.217628
0.0481442
0.127612
0.012003
-0.762402
-1.37867
-1.12794
-0.520747
-0.220636
0.911822
2.18802
0.724215
-1.14123
-1.78658
-1.62885
-0.525079
0.287794
-0.13312
-0.948231
-0.705829
-0.697969
-1.18742
-0.0681494
2.86475
3.48318
2.1587
-0.224922
-3.62784
-0.8069
3.38278
-0.122532
-2.20661
-1.04575
-0.386915
0.682319
0.758359
0.269573
-0.393647
-0.446184
0.861662
-0.0855847
-1.6056
-0.142158
1.55884
0.00814242
-2.43493
3.15525
5.33433
0.998254
-2.14014
-3.91793
-1.42252
0.203571
-0.00442424
0.15428
-0.134631
-0.122513
0.137311
0.0782988
-0.167617
-0.0653461
0.164215
0.0122831
-0.203606
0.0353483
0.221715
-0.141253
-0.197145
0.299873
0.118575
-0.357806
0.0593132
0.222899
-0.386857
-0.363352
0.469826
0.766133
-0.015721
-0.327112
0.203054
-0.268121
-0.34193
0.0125778
-0.152398
0.237162
1.22308
1.67298
-0.379046
-2.72412
-1.32443
0.416936
-0.263911
-1.26476
-0.756578
0.932599
1.62228
0.584244
-1.1219
-1.39467
-0.311356
0.721826
0.262419
-0.180779
0.468964
1.2284
0.944436
0.0362799
-0.129426
2.18627
3.57202
1.03458
-0.541647
-0.181311
-0.0811372
-0.0629263
0.0955074
0.0500407
-0.110877
0.984473
1.86898
0.734075
-1.50984
-1.86413
-2.12253
-2.90277
-2.08489
-1.87955
1.32782
5.47435
2.12209
-1.1899
-0.840126
-0.480889
1.84302
1.30901
-2.18896
-1.59852
1.3243
0.675891
-1.88223
-0.72314
1.71587
-0.669876
-1.39376
1.80422
0.618895
0.074638
2.62736
1.76873
-2.20283
-4.13136
-1.57456
0.345607
0.0704202
0.015456
-0.202321
0.0283732
0.207711
-0.0921383
-0.240461
0.135774
0.213505
-0.227578
-0.190269
0.294026
0.0915494
-0.355858
0.0640064
0.348863
-0.195839
-0.156883
0.328368
-0.0387997
-0.444597
-0.215105
0.0461943
0.147338
0.655229
0.544703
-0.577585
-0.282596
1.12213
0.759874
-1.48624
-0.736794
1.37501
-1.41906
-4.37875
-0.497721
4.37161
3.45518
-0.896847
-2.15298
0.885201
2.31191
0.574592
-0.227986
0.831734
1.35877
0.586877
0.0364642
0.12382
-0.603739
-1.72695
-1.78693
-0.638303
0.02711
0.871335
-0.354808
-2.47337
-1.71097
-0.765899
-0.304084
0.727235
0.680426
-0.0859288
-0.67759
-0.0258793
0.277809
-0.00101977
0.845788
3.38094
4.73487
2.52572
0.00588609
-3.68548
-2.94392
3.04284
0.920132
-3.65041
-3.25934
-0.679706
2.71605
2.38467
-1.24281
-0.585688
2.04343
0.494714
-1.29559
-1.61105
-0.387966
0.681056
0.331377
-0.645395
-0.599137
1.42361
3.53956
4.08954
1.72317
-2.34314
-4.29699
-1.2448
0.552395
-0.325084
-0.0875176
0.248659
0.0469781
-0.285171
-0.00724186
0.269522
-0.066171
-0.279121
0.0940578
0.233654
-0.170554
-0.228237
0.244387
0.182504
-0.358801
-0.0499302
0.496184
-0.0528946
-0.400674
0.155861
-0.0212907
-0.608461
-0.246966
0.961561
1.44627
-0.449886
-0.964255
0.227375
-0.685942
-0.0517232
0.0140066
-1.44266
0.656437
4.20964
4.06508
-0.681613
-4.66963
-2.04965
1.02195
-0.228961
-1.38768
-0.454097
-0.122751
-1.02383
-1.82648
-1.01519
0.481213
1.45373
1.61314
0.376945
-0.966956
-1.21523
0.313646
0.640729
-0.420404
-0.114646
-0.00430531
-0.761983
-1.29026
-1.71378
-0.821442
-0.0758628
0.208562
0.159086
-0.735621
-3.31653
-3.87631
-2.00669
-2.14118
-1.82443
0.0247093
2.76876
6.67031
4.17862
-1.61487
-2.02678
-0.370523
2.35393
1.84357
-3.54541
-4.11635
3.38973
2.44432
-3.95944
-1.65629
2.04282
0.00625846
-2.88826
1.19639
3.32108
-1.66444
-3.61409
6.62686
9.12885
1.18131
-2.40254
-4.34372
-1.41653
0.330132
-0.130403
0.0913318
0.00965825
-0.0810793
-0.0391732
0.0894067
0.0453419
-0.137357
-0.0792111
0.143456
0.0449056
-0.201601
-0.031687
0.223998
-0.0600913
-0.20975
0.194922
0.125461
-0.174877
0.208693
0.228672
-0.530833
-0.58746
-0.0768612
-0.0458402
0.546468
1.74511
-0.285696
-1.54388
0.90344
1.60401
0.815896
-0.951152
-0.69247
1.46636
-3.19996
-8.35328
-3.14771
4.71829
5.66127
1.34393
-0.678093
1.26604
0.856831
-2.56123
-2.68614
0.725696
3.74674
1.97825
-0.355955
0.435669
2.09979
1.20358
-0.872829
0.135414
2.94069
3.16973
1.81408
2.08312
1.61765
1.2091
0.775287
1.24924
1.78929
1.58029
2.41104
3.25499
3.99301
1.29745
-1.03824
-2.06999
-4.4406
-1.5227
0.354867
-3.57418
-4.57223
0.275494
5.30491
2.9614
-1.48912
-1.12975
4.40837
3.24194
-5.05744
-1.14922
1.84583
-1.87491
-1.46406
-0.31948
0.0419154
1.28224
2.20924
-3.78729
1.47804
7.46509
1.89655
-2.40606
-4.49126
-1.76121
0.31316
0.14621
0.0411477
-0.288569
0.0513181
0.292424
-0.127266
-0.310525
0.169333
0.274692
-0.247483
-0.264013
0.255665
0.176196
-0.319323
-0.141568
0.38935
0.0400097
-0.458863
0.177013
0.575564
-0.0969396
-0.431391
-0.203037
-0.308928
-0.366532
0.0854818
1.68453
1.8481
-1.77586
-0.885165
0.314655
-2.26583
0.7149
0.757771
-5.04449
-0.980745
9.57116
9.73514
1.0734
-4.86675
-2.61545
2.61088
1.70646
-2.86912
-1.62675
2.30869
2.17332
-0.279615
-2.25022
-4.22089
-3.67545
-1.76079
-1.87573
-0.0720612
-0.757193
-5.02923
-5.18444
-3.36093
-2.54044
-1.30938
-0.513172
-1.60354
-2.35633
-2.39607
-3.56216
-4.00841
-0.747929
1.30132
1.76722
4.52972
5.07847
4.16446
3.85626
-0.79901
-2.80782
-0.965575
0.48872
-1.43508
-3.90059
-3.18613
2.73396
4.72687
-5.35582
-2.79646
6.67046
-2.31797
-3.97355
0.987919
2.19611
-0.707472
-2.37329
0.258981
2.43851
4.26256
2.78235
2.47735
-2.50715
-4.58676
-1.41729
0.525493
-0.259778
-0.0398707
0.158923
0.0204003
-0.171942
-0.00709538
0.149913
0.00238098
-0.142627
-0.0479198
0.0768793
0.0166226
-0.0817559
-0.0536921
0.0455303
0.0585981
-0.106926
0.0217655
0.176693
-0.112726
0.138941
0.589216
-0.286936
-1.43995
-0.381726
0.66469
-0.237105
0.950984
2.13997
-1.63777
-0.937532
2.14923
0.515848
1.41929
2.65677
2.43815
3.4978
-4.82659
-15.6288
-10.9158
1.79686
6.03231
0.0705456
-4.59725
-2.33358
0.173942
-3.52346
-4.60508
0.132513
4.16759
3.31425
2.41264
3.80134
4.26601
2.57206
1.85501
1.61929
1.05536
1.0759
0.792795
0.43274
1.51355
1.58283
2.04935
0.896055
-0.715918
-2.08264
-3.29492
-2.64567
-6.61142
-6.61896
0.377583
0.163266
-1.73096
2.32657
5.85253
2.90797
-0.130118
2.72759
2.73832
0.945435
-3.66318
-2.31799
6.45547
-3.92195
-5.12868
5.537
-2.96499
-3.0711
3.08293
1.89124
-8.34415
-0.00115795
16.6054
7.64243
0.693817
-2.59525
-4.64493
-1.36828
0.429584
-0.284598
0.0764133
0.161008
-0.113406
-0.167035
0.181624
0.164906
-0.261833
-0.179083
0.307761
0.140643
-0.379996
-0.145389
0.323017
0.0470777
-0.343862
-0.0239199
0.408395
-0.106767
-0.401404
0.414246
0.685397
-0.0528075
-1.17494
-0.816616
0.617189
0.137356
-0.0622843
1.84987
1.60444
-1.07492
-0.114344
-1.21429
-3.76538
0.406305
0.508273
-9.49736
-7.67566
7.61894
14.9386
8.36584
-1.78255
-2.5427
-0.0367259
1.84216
0.483251
-0.899807
4.24694
6.9181
3.85568
1.66672
0.574524
-3.83489
-3.07632
1.62597
1.76273
2.22731
2.45844
2.056
0.339105
-0.229029
0.519586
0.616367
-0.0286068
2.30362
6.21476
7.55133
6.81197
3.83905
-0.717829
0.0902651
-0.28583
-3.79176
-4.33144
-4.54537
-4.264
-2.24091
0.810182
-0.0806211
-1.64238
1.3627
0.476312