# vtk DataFile Version 3.0
fluid_state
ASCII
DATASET RECTILINEAR_GRID
DIMENSIONS 100 100 1
X_COORDINATES 100 double
0 1 2 3 4 5 6 7 8 9 10 11 12 13 14 15 16 17 18 19 20 21 22 23 24 25 26 27 28 29 30 31 32 33 34 35 36 37 38 39 40 41 42 43 44 45 46 47 48 49 50 51 52 53 54 55 56 57 58 59 60 61 62 63 64 65 66 67 68 69 70 71 72 73 74 75 76 77 78 79 80 81 82 83 84 85 86 87 88 89 90 91 92 93 94 95 96 97 98 99 
Y_COORDINATES 100 double
0 1 2 3 4 5 6 7 8 9 10 11 12 13 14 15 16 17 18 19 20 21 22 23 24 25 26 27 28 29 30 31 32 33 34 35 36 37 38 39 40 41 42 43 44 45 46 47 48 49 50 51 52 53 54 55 56 57 58 59 60 61 62 63 64 65 66 67 68 69 70 71 72 73 74 75 76 77 78 79 80 81 82 83 84 85 86 87 88 89 90 91 92 93 94 95 96 97 98 99 
Z_COORDINATES 1 double
0
POINT_DATA 10000
SCALARS vorticity float 1
LOOKUP_TABLE default
-0.00859008
-0.026308
-0.0294449
-0.0550801
-0.0855752
-0.129034
-0.168287
-0.19462
-0.229431
-0.274163
-0.308769
-0.337682
-0.378652
-0.419051
-0.445692
-0.476371
-0.518002
-0.552013
-0.578402
-0.613323
-0.650551
-0.674372
-0.698041
-0.732139
-0.762441
-0.783681
-0.809473
-0.836418
-0.849787
-0.857184
-0.868795
-0.874246
-0.870375
-0.871109
-0.874046
-0.862986
-0.845534
-0.834085
-0.814017
-0.778519
-0.744716
-0.7126
-0.665402
-0.609467
-0.561514
-0.507646
-0.439099
-0.374205
-0.315839
-0.245428
-0.167555
-0.0999476
-0.033309
0.045412
0.121909
0.189386
0.259701
0.332189
0.396702
0.454433
0.512553
0.566659
0.612378
0.654505
0.696192
0.732763
0.760733
0.784952
0.807971
0.823022
0.82992
0.835764
0.839016
0.833205
0.821975
0.812508
0.799529
0.780503
0.762098
0.743209
0.715101
0.683753
0.657138
0.625192
0.587926
0.55587
0.52144
0.477341
0.436065
0.401545
0.359631
0.314058
0.274341
0.228681
0.175174
0.130984
0.0879028
0.0454512
0.0512593
0.0149465
-0.0346726
-0.0988264
-0.0854418
-0.128442
-0.187535
-0.236706
-0.294816
-0.363561
-0.427852
-0.484841
-0.538303
-0.596675
-0.668809
-0.720168
-0.766032
-0.830191
-0.907951
-0.954356
-0.992341
-1.06978
-1.13697
-1.15843
-1.20281
-1.28948
-1.33852
-1.3421
-1.40501
-1.47673
-1.46862
-1.46783
-1.52952
-1.55189
-1.50943
-1.52095
-1.57274
-1.53238
-1.47687
-1.49145
-1.47058
-1.3764
-1.31182
-1.28642
-1.19801
-1.0782
-1.01335
-0.931934
-0.803843
-0.687771
-0.590179
-0.468432
-0.328284
-0.205888
-0.0834289
0.0535538
0.182248
0.312755
0.440434
0.557967
0.677332
0.796197
0.902178
0.990853
1.08125
1.16847
1.22853
1.27814
1.3298
1.38421
1.41302
1.42481
1.46338
1.48874
1.46768
1.45666
1.46751
1.44408
1.38298
1.36937
1.36485
1.29973
1.24237
1.23435
1.18759
1.09277
1.04629
1.01763
0.920931
0.839606
0.804543
0.732073
0.63137
0.575674
0.517875
0.421006
0.337964
0.281549
0.205127
0.158678
0.170452
0.0496139
-0.0354567
-0.091741
-0.0437516
-0.0328195
-0.084277
-0.101725
-0.100979
-0.118831
-0.147066
-0.172069
-0.173764
-0.180323
-0.220574
-0.238242
-0.240605
-0.254219
-0.30056
-0.314812
-0.301409
-0.334673
-0.370684
-0.36628
-0.369219
-0.411456
-0.439153
-0.419455
-0.440559
-0.474319
-0.46591
-0.463018
-0.482567
-0.497581
-0.492827
-0.490375
-0.502769
-0.497472
-0.495617
-0.478555
-0.460132
-0.47013
-0.444923
-0.400153
-0.393187
-0.391772
-0.337207
-0.27965
-0.291152
-0.260189
-0.172185
-0.150978
-0.150377
-0.0789336
-0.0113016
-0.00559373
0.0257752
0.108073
0.145531
0.161596
0.216615
0.264686
0.291221
0.316882
0.343662
0.37646
0.405558
0.416882
0.416904
0.459303
0.480846
0.44539
0.464035
0.506141
0.475625
0.444876
0.482426
0.497903
0.435354
0.436587
0.476401
0.431147
0.385402
0.41322
0.406194
0.344145
0.336628
0.352776
0.301272
0.27108
0.27886
0.248766
0.20527
0.194562
0.176401
0.146743
0.126652
0.114232
0.0853205
0.0836151
0.109114
0.0330461
-0.073205
-0.140115
-0.0621391
0.0304257
0.0346909
0.016376
0.00170276
0.0263466
0.0523385
0.0287113
0.0230838
0.0523256
0.0634755
0.0458866
0.0417026
0.0781941
0.086411
0.0646812
0.0699852
0.0970252
0.100592
0.0716303
0.0847579
0.12868
0.115645
0.08541
0.11354
0.150932
0.113638
0.0868883
0.148246
0.160961
0.0965472
0.111788
0.173337
0.139385
0.0838445
0.138892
0.16682
0.0897175
0.0864887
0.143684
0.115282
0.0577871
0.0904887
0.114631
0.0527937
0.0414956
0.073582
0.0467405
0.0108127
0.0239536
0.0204341
-0.0135572
-0.0135509
-0.0153385
-0.0436871
-0.050158
-0.0456868
-0.0739063
-0.087354
-0.0738539
-0.0914008
-0.115582
-0.105831
-0.0930008
-0.119797
-0.1285
-0.108824
-0.115969
-0.134606
-0.134008
-0.112286
-0.116547
-0.137658
-0.119886
-0.101038
-0.112818
-0.12062
-0.0950982
-0.0834685
-0.10978
-0.102898
-0.0692602
-0.0786019
-0.0919809
-0.0652126
-0.0514737
-0.0745533
-0.0648748
-0.0339982
-0.0463542
-0.0500293
-0.0211531
-0.0305258
-0.0507905
-0.0395202
0.0360828
0.121694
0.0731447
-0.116076
-0.202723
-0.0615973
0.0143715
-0.0114097
0.00491447
-0.0034563
-0.0221531
-0.0223703
-0.00633098
-0.00752473
-0.0317126
-0.0189528
0.000326383
-0.0181411
-0.0369337
-0.0184937
-0.00862091
-0.0370224
-0.0396113
-0.0126433
-0.0180183
-0.0424002
-0.034748
-0.0184912
-0.0311017
-0.0397602
-0.0303047
-0.0244992
-0.0299264
-0.040495
-0.0362889
-0.0209415
-0.0270435
-0.045142
-0.034102
-0.0117295
-0.0365755
-0.0589122
-0.014513
-0.00406715
-0.0539724
-0.0384988
0.0106355
-0.0199065
-0.0589769
-0.00782724
0.0165514
-0.0401163
-0.0285359
0.0222206
-0.00225577
-0.028848
0.00713209
0.0272659
-0.00905972
-0.00421857
0.0226138
0.0103712
0.00434296
0.0164466
0.0225182
0.0264917
0.0333923
0.0176427
0.01732
0.0403404
0.0230542
0.00292732
0.0418762
0.0527604
0.0107097
0.0260431
0.0626606
0.0346599
0.0103551
0.0481618
0.0507001
0.00981499
0.0258642
0.0563798
0.0313745
0.0212975
0.0496452
0.0386045
0.01348
0.0283151
0.0347089
0.0144058
0.0169504
0.028813
0.0138591
0.00631776
0.011544
0.00516566
-0.00102421
-0.0297687
0.0614222
0.206446
0.12465
-0.145038
-0.265723
-0.0717734
0.0298507
-0.0252482
-0.00238408
0.0140022
0.00906444
-0.0159522
-0.00135079
0.0188194
-0.000760794
-0.0102184
-0.00170832
0.015762
-0.00040066
-0.0156159
0.00639733
0.0190227
0.000949263
-0.0147158
0.017714
0.0281205
-0.013779
-0.00932917
0.031758
0.0206635
-0.0242881
0.00485354
0.0538565
-0.000772192
-0.0260902
0.0374362
0.0332877
-0.022258
-0.0060171
0.0497301
0.0131548
-0.027686
0.0287389
0.029408
-0.0209356
-0.00543986
0.0251072
0.00357532
-0.0145619
0.0181095
0.0139763
-0.0145392
0.00936611
0.011435
-0.0138638
0.00150927
0.00861248
-0.0131527
-0.0149797
0.0136607
0.0033788
-0.0227352
0.00592852
0.0113044
-0.0234507
-0.025822
0.00279716
-0.00273245
-0.0303391
-0.00572136
0.0154895
-0.0126084
-0.0213369
-0.00615971
0.00259642
-0.0190886
-0.0301161
0.00669928
0.00568851
-0.0199882
-0.00484583
0.0246068
0.00227089
-0.0228219
0.0100266
0.0119187
-0.0224756
-0.00940644
0.0208643
0.000734697
-0.0139571
0.0143382
0.0106763
-0.0181766
-0.000550954
0.0117987
-0.0185991
-0.0160749
0.0168479
-0.0271418
0.09183
0.301056
0.166679
-0.17695
-0.318525
-0.117992
0.0231591
0.00741773
0.00446935
-0.0224228
0.00662722
0.0133002
-0.0108127
-0.0215917
0.00319246
0.0135558
-0.0255265
-0.0151031
0.0148779
0.00196762
-0.0208302
-0.00664867
0.016621
-0.0117623
-0.0238967
0.00259671
0.00956339
-0.0025937
-0.0157248
0.00314549
0.0132461
-0.0145746
-0.0167783
0.00679897
0.0196714
-0.0130008
-0.0219377
0.0319178
0.00877045
-0.0393081
-0.00355918
0.0340232
-0.0120628
-0.0433266
0.0316032
0.0311203
-0.0432173
-0.00780779
0.0421377
-0.0102902
-0.0401424
0.0188137
0.0229811
-0.0314698
-0.00695593
0.0332211
-0.00680947
-0.0160464
0.0170842
0.00236924
-0.0152258
-0.000978847
0.00387253
-0.0105878
0.0059431
0.00995954
-0.015685
0.00715117
0.0124352
-0.0194002
-0.0146154
0.0133861
0.00124392
-0.0286073
0.0154725
0.0297681
-0.0150521
0.00320019
0.0248258
0.00204795
-0.0124113
0.014741
0.014918
-0.0065444
0.0167337
0.0217896
0.00428579
0.00802199
0.0151555
0.00319243
-0.00236974
0.010243
0.00750158
-0.00378006
0.00688347
0.00736954
-0.0068947
-0.0052345
0.00691548
-0.0326231
0.126941
0.366978
0.20414
-0.221281
-0.38227
-0.131018
0.0141713
-0.00630818
0.0086759
-0.0111065
-0.00620031
0.00203509
0.0072708
-0.00691821
-0.00954279
0.00594752
0.00443759
-0.00772526
-0.0164943
0.00305282
0.00380395
-0.022011
-0.00516072
0.021627
0.0049743
-0.0197309
0.00275997
0.0240097
-0.0194479
-0.0192987
0.032592
0.0141233
-0.0258777
-0.00027885
0.031859
-0.0123437
-0.0283915
0.0263759
0.0154974
-0.0201911
0.000681841
0.0234995
-0.00426394
-0.0151234
0.0179175
-0.000843774
-0.0137365
0.00979545
-0.000739998
-0.0129558
0.00732312
0.0149349
-0.0166172
-0.00595317
0.018578
-0.0113491
-0.0240825
0.0141447
0.0157045
-0.0234117
-0.00149128
0.0248734
-0.00553615
-0.0249739
0.00645412
0.0158181
-0.0236956
-0.0151017
0.0122507
0.00322769
-0.0192453
-0.00817503
0.0210775
-0.00411557
-0.0207833
-0.00181593
0.013215
-0.0029098
-0.0167101
0.0275244
0.0247878
-0.0119379
0.00572488
0.0257822
3.91589e-05
-0.0162944
0.0222024
0.016084
-0.0182729
0.00896133
0.022053
-0.00849632
-0.00187812
0.0211957
-0.00312099
-0.0200144
0.0080876
0.0090967
0.00101164
-0.0299779
0.158819
0.430994
0.248135
-0.257116
-0.451291
-0.125267
0.04479
-0.032815
-0.00963955
0.0223006
0.00495119
-0.0249441
0.00300079
0.0202444
-0.00930107
-0.0303776
0.00170995
0.0149324
-0.0221646
-0.0157056
0.0195067
0.00921416
-0.0193833
-0.0127113
0.0139984
0.00609924
-0.0180896
-0.0014346
0.0210463
0.00431771
-0.0264539
-0.00507836
0.0307276
-0.00540289
-0.0312451
0.0189821
0.0369899
-0.0296551
-0.0283094
0.0452715
0.00996551
-0.0474979
0.00921105
0.0479849
-0.0237912
-0.0376867
0.0454966
0.0191225
-0.0458958
0.00973885
0.0361324
-0.0254495
-0.0265007
0.0313653
0.0064482
-0.0282232
0.016106
0.013105
-0.021559
0.000523074
0.0151116
-0.0165068
-0.00496317
0.0219367
-0.0145229
-0.019633
0.0150846
-0.000197563
-0.0307192
0.00326161
0.0186382
-0.0254476
-0.0188507
0.0180509
0.00274712
-0.021405
0.0138796
0.0241878
-0.0118518
0.00202095
0.0165749
0.0047659
0.00730695
0.0148917
0.00957835
-0.00143251
0.0101437
0.00713672
-0.00276064
0.0130737
0.00780319
-0.00544326
0.000360445
0.00402632
-0.000787756
0.000676832
0.00872498
0.00169337
0.0146692
-0.0420031
0.165656
0.514548
0.294768
-0.281954
-0.500204
-0.166428
0.0470223
-0.00949746
-0.00704825
-0.0063732
-0.000105178
0.00353662
-0.0076444
-0.0159466
0.00954422
0.00517683
-0.0162833
-0.00629684
0.0114574
-0.0043471
-0.0267179
0.00198409
0.0188146
-0.0151961
-0.0140129
0.0213617
0.00903475
-0.0227961
0.00272683
0.0261853
-0.0116676
-0.0160604
0.0157413
0.00837034
-0.0177133
-0.00137507
0.0202262
-0.00909031
-0.00464231
0.0129338
-0.00255825
0.000243327
0.00713521
0.000236823
-0.00561368
0.0120111
0.00469367
-0.0216323
0.00593827
0.0187432
-0.0221224
-0.0117511
0.0246263
-6.71009e-05
-0.0285659
0.00491866
0.0270379
-0.0207866
-0.0173613
0.026303
0.00168971
-0.0258124
-0.00158714
0.0179497
-0.011013
-0.0177554
0.0105121
0.00758623
-0.0147876
-0.0199036
0.000955484
0.00594717
-0.0197567
-0.00938155
0.0174332
0.00459855
-0.0127071
0.00635637
0.0287651
0.00319639
-0.00835031
0.0222137
0.0138338
-0.0129476
0.014295
0.0265826
-0.00759281
-0.000619713
0.0214181
-0.00438116
-0.0166753
0.0193546
0.0110967
-0.0190831
0.00813963
0.0189717
-0.0112476
-0.0101841
0.0389875
-0.0482385
0.178709
0.596023
0.337429
-0.317102
-0.549583
-0.196262
0.02793
-0.00261454
0.0115172
-0.0191431
-0.0137737
0.0209832
0.00612864
-0.0277147
-0.00232509
0.0144386
-0.0104266
-0.0264108
0.00136166
0.0152857
-0.0156079
-0.0163474
0.00903448
0.0138951
-0.00783424
-0.0172795
0.0154588
0.0136907
-0.0209122
-0.0153245
0.0248477
0.019264
-0.038972
-0.00399003
0.0430214
-0.015891
-0.0416106
0.0235645
0.0431869
-0.0382537
-0.0196972
0.0555103
-0.00360983
-0.0447962
0.0227624
0.0371984
-0.0371039
-0.0156271
0.0449872
-0.00881815
-0.0335872
0.0330974
0.0194026
-0.0350349
0.00706782
0.0219515
-0.0237998
-0.0127379
0.0278993
-0.00508103
-0.0265829
0.0307066
0.00471672
-0.0391034
0.00741125
0.0176011
-0.0320808
-0.0273224
0.0278488
-0.00412049
-0.0380927
0.0142398
0.0155709
-0.01769
-0.0129867
0.0173644
0.00666113
-0.0170347
0.0175608
0.0205799
0.00830481
0.0143946
0.0134473
0.00584363
0.00142547
0.00787491
-0.00218895
0.00445717
0.011773
-0.00182388
-0.000273168
0.00770888
0.00127783
-0.00250789
0.00447181
0.00357729
0.00688385
0.00244587
0.0216793
-0.0548722
0.219604
0.670008
0.382472
-0.357413
-0.630728
-0.189403
0.060027
-0.0316231
-0.00431079
0.0153681
-7.30773e-05
-0.0232548
-0.00446869
0.0176983
-0.0106349
-0.0293051
0.0112864
0.0139824
-0.0232838
-0.0122423
0.0222377
0.00519734
-0.034933
-0.0018506
0.0245918
-0.0166878
-0.0130004
0.0220822
0.0194046
-0.0158467
-0.0108639
0.0168717
-0.00783409
-0.00947188
0.00476995
0.00796643
0.00883848
-0.00317345
-0.00368077
0.00152863
0.0137378
-0.00731029
-0.0112605
0.0261671
0.00534349
-0.0231851
0.00303101
0.0299347
-0.0125586
-0.0270724
0.0245913
0.00846119
-0.0356297
-0.00312156
0.0361504
-0.00918843
-0.0211262
0.0224144
0.0072669
-0.0253632
-0.0141367
0.0157579
-0.00766496
-0.0174836
0.00713225
-1.23016e-05
-0.00456452
-0.014767
-0.00760981
0.00175977
-0.0116737
-0.01813
-0.0115099
0.0149007
-0.00524688
-0.0014507
0.0345752
0.0153388
-0.000293959
0.00283532
0.0175077
-0.0043527
-0.00135653
0.0309483
0.00130302
4.35918e-05
0.0206382
0.0051895
-0.0160617
0.00764282
0.0203948
-0.021095
-0.00733795
0.0270936
-0.00392809
-0.0171324
0.025281
0.0115064
0.00285666
-0.0577586
0.261957
0.754097
0.430321
-0.381928
-0.685752
-0.209284
0.0751785
-0.03002
-0.0128795
0.00308714
0.00607581
-0.0158721
-0.0154203
0.0109382
0.00248396
-0.0156545
-0.00213941
0.00587085
-0.00507319
-0.0193517
-0.0123333
0.00910841
0.000341363
-0.0109789
0.000391548
0.0164666
-0.000403116
-0.0304432
0.0081984
0.0282673
-0.0168947
-0.0173525
0.0321187
0.0172137
-0.0486587
-0.0059551
0.0410006
-0.0202953
-0.0353906
0.0373764
0.033157
-0.0421991
0.000822241
0.0454634
-0.0228916
-0.0248284
0.0344198
0.00807764
-0.0372304
0.0191457
0.0345637
-0.0320048
-0.000241717
0.0398867
-0.0194016
-0.0318001
0.0308251
0.00964537
-0.042703
0.0194826
0.0329783
-0.0378879
-0.0187849
0.0332613
-0.0160343
-0.0526388
0.0194549
0.0147565
-0.0484106
-0.0153364
0.0270216
-0.00550508
-0.0260479
0.0201863
0.0161218
-0.0132622
0.000581193
0.017738
0.0177189
0.00374116
0.022254
0.016698
0.00183659
0.0115055
-0.000952765
0.00150063
0.00386674
0.00367366
0.00211491
-0.000613558
0.00737268
-0.000390693
0.000326175
0.00541635
0.00335009
0.00577396
0.00365489
-0.00452009
0.03292
-0.065218
0.258394
0.82932
0.473991
-0.406517
-0.719201
-0.253068
0.0426556
-0.00503541
0.0227717
-0.0295875
-0.0148807
0.0280454
0.000242881
-0.0335617
-0.0074744
0.023956
-0.0158397
-0.0364483
0.0204882
0.0241427
-0.0261358
-0.0181178
0.0209738
0.00119814
-0.0370778
0.00157302
0.0315476
-0.00458546
-0.0162594
0.0108415
0.0183963
-0.0114549
-0.0153951
0.00586525
0.0127187
0.00162351
-0.0182378
0.0109298
0.0255206
-0.0134238
-0.0224857
0.018657
0.0248145
-0.027274
-0.00391135
0.0451823
-0.00487669
-0.0338489
0.0198517
0.0248313
-0.0319114
-0.0153805
0.0359805
-0.00432632
-0.0313563
0.0198993
0.0145795
-0.0214801
-0.00713054
0.0132174
-0.00696486
-0.0196378
0.00202487
-0.00519835
-0.0119503
-0.00300912
-0.0132394
-0.0146695
-0.00179852
-0.0116858
-0.0261066
0.000320018
0.0129335
-0.00851374
0.00817844
0.0358622
0.00964895
0.00233564
0.0247755
0.00692994
-0.00193394
0.0151958
0.0078301
-0.00445024
0.0154721
0.0193755
-0.0141567
-0.00079521
0.0261036
-0.0115674
-0.0194695
0.0238129
0.00940938
-0.0253867
0.00797577
0.0286732
-0.00870793
-0.0123891
0.0520737
-0.0757246
0.273506
0.905451
0.516994
-0.44421
-0.782958
-0.248359
0.063156
-0.026166
0.0105518
-0.00869062
-0.0117366
-0.00613343
-0.00501875
-0.00129459
-0.0116143
-0.00216333
0.00736963
-0.00112205
-0.0115784
-0.0127734
0.0084207
-0.00758022
-0.0242558
0.00703203
0.0150657
-0.0149487
-0.0214752
0.0266158
0.0124933
-0.0308786
0.0113705
0.030455
-0.0152162
-0.0265389
0.0267492
0.0106267
-0.0465026
0.00686864
0.0292249
-0.0258457
-0.0134989
0.0409155
0.0079038
-0.0311793
0.024577
0.0195012
-0.034029
0.00911468
0.0420173
-0.0220743
-0.0177696
0.0446162
-0.00291947
-0.0435728
0.0273176
0.0396076
-0.0472181
-0.00919158
0.0505748
-0.0291347
-0.0412224
0.0315278
0.0142055
-0.0559816
-0.0103158
0.0341974
-0.0446048
-0.0438129
0.0223683
0.0023896
-0.0356233
-0.00142105
0.0311124
-0.00501177
-0.000183158
0.031158
0.0161735
0.00787433
0.0122864
0.0169686
0.0053765
0.00703389
0.0144689
-0.000418315
0.000288558
0.00680998
0.00563253
-0.00662882
0.000900329
0.0114042
-0.0028847
-0.00301954
0.00530062
0.0111781
0.0011019
-0.00496334
0.0126566
0.00244711
0.0186287
-0.0842618
0.338435
0.998217
0.56222
-0.475154
-0.857818
-0.260679
0.0982541
-0.0424762
-0.0226714
0.0173881
0.0169741
-0.0325392
-0.0180602
0.0302905
-0.00145669
-0.0370296
-0.00189303
0.0260896
-0.0155596
-0.0362896
0.0200357
0.018145
-0.0257792
-0.0152187
0.0174339
0.00573151
-0.0337494
-0.00237968
0.0206467
0.00157359
-0.00908273
1.86484e-05
0.0289881
0.00289239
-0.0258194
-0.00353458
0.0237013
-0.00137375
-0.037695
0.0194243
0.0385091
-0.0237588
-0.0213299
0.0400991
0.0201482
-0.0380739
0.016135
0.0404556
-0.0271248
-0.0235501
0.0354813
0.00725722
-0.0349479
0.0179862
0.0167136
-0.0288529
-0.0123767
0.0194963
-0.00659436
-0.0233988
0.0178692
-0.00765463
-0.0261624
0.00052008
-0.0130337
-0.028124
-0.0134716
0.00320233
-0.0363795
-0.0255498
0.0273723
0.00231614
-0.00432592
0.0291196
0.0350427
-0.001562
0.00709545
0.0315557
-0.00365521
0.0139983
0.0201263
-0.00369418
0.00913859
0.01717
-0.00482472
-0.0190594
0.0263893
0.00811575
-0.0288568
0.0156803
0.023148
-0.0178322
-0.0125841
0.0285269
0.00186985
-0.020753
0.0244167
0.0109133
0.0119185
-0.0904931
0.366272
1.07758
0.604379
-0.496615
-0.879868
-0.297496
0.0687665
-0.0131219
0.00488386
-0.0170607
-0.00901838
0.00700924
-0.00163566
-0.0232111
-0.00413634
0.016436
-0.0123177
-0.0216074
0.0151586
0.0163698
-0.0246678
-0.0236958
0.0224009
-0.00624532
-0.0452913
0.00832956
0.0305366
-0.0163623
-0.0266618
0.0324225
0.0169834
-0.035877
0.00722514
0.0287206
-0.0132314
-0.0176659
0.0201287
-0.0036266
-0.0285591
0.0177106
0.00336342
-0.0272355
0.0148758
0.0308744
-0.0159462
-0.00306701
0.0470433
-0.00916206
-0.0299085
0.0424855
0.0205317
-0.0469825
0.00757175
0.058099
-0.0332596
-0.0327842
0.0544767
0.0042899
-0.0561619
0.00977721
0.0348203
-0.0558902
-0.0353149
0.0369405
-0.0230563
-0.0579949
-0.0014532
0.0119328
-0.0433538
-0.019535
0.0305853
0.00372376
0.00491518
0.0306139
0.0314401
0.00642111
0.0165773
0.0300617
-0.00372191
0.0093226
0.0129672
-0.000599229
-0.005676
0.00399786
0.022702
-0.0110292
-0.00751982
0.0160593
0.00293118
-0.0116279
-0.0021027
0.0223527
0.00266455
-0.0132791
0.0106495
0.0148839
-0.0053022
-0.0137123
0.0487162
-0.0916697
0.355304
1.139
0.645784
-0.530363
-0.92026
-0.309394
0.0537811
-0.0134529
0.0225515
-0.0212533
-0.0266289
0.0127846
0.0154084
-0.0307917
-0.00983513
0.0254933
-0.0022379
-0.0275473
-0.00510321
0.0162839
-0.0141267
-0.0240857
0.01342
0.0116886
-0.0153838
-0.0176531
-0.00280829
-0.00131156
-0.016936
-0.00816155
0.0151272
0.0248442
-0.001825
-0.00629286
0.027742
0.00566646
-0.0367544
-0.00906955
0.0344989
-0.0112257
-0.0375891
0.0388134
0.0382259
-0.0320498
-0.00399692
0.0448407
-0.00766138
-0.0299533
0.0402901
0.0199405
-0.0382138
0.0146714
0.0293481
-0.0335936
-0.019685
0.0347749
-0.00816512
-0.0408982
0.0187062
0.00680852
-0.0423039
-0.00382256
0.0113903
-0.0424984
-0.0353729
0.00600296
-0.0393736
-0.0546783
0.0141088
0.0273281
-0.0117471
0.0225479
0.0625845
0.0130557
0.000415433
0.0298399
0.0129542
-0.00428171
0.0164568
0.0186316
-0.00388275
0.0245231
0.012942
-0.0309409
0.00714988
0.0195874
-0.0244075
-0.00959662
0.0348117
0.00376623
-0.0242068
0.0184257
0.0177407
-0.0218163
0.00376243
0.0234944
-0.00546826
-0.0115523
0.0465817
-0.107916
0.388306
1.22779
0.695303
-0.567518
-1.00537
-0.306631
0.103164
-0.043315
-0.0205902
0.0177447
0.0155599
-0.0298446
-0.0119704
0.0213629
0.00214789
-0.0417531
-0.00305622
0.0370132
-0.0193059
-0.0304551
0.0230206
0.0216915
-0.0443441
-0.0293012
0.0356535
-0.00975814
-0.0471017
0.00878263
0.034678
-0.025335
-0.0317623
0.037712
0.0126265
-0.0204563
0.0148976
0.022889
-0.00252113
-0.00896695
-0.00166703
-0.0261505
-0.00718768
0.0184895
-0.0249561
-0.0106302
0.0468564
0.0155686
-0.0252711
0.032192
0.041476
-0.0372301
-0.0111957
0.0633758
-0.00369403
-0.0467711
0.042103
0.0313905
-0.0518375
-0.0107443
0.0431839
-0.0312768
-0.056715
0.0272345
-0.00707896
-0.0758498
-0.0233962
0.00374237
-0.0444778
-0.0385017
0.0184142
0.0191131
0.0112578
0.0465628
0.038216
0.00999422
0.0195058
0.0290974
0.00981628
-0.00188162
0.0240089
0.0127951
-0.0204869
-0.00197855
0.0207884
-0.00160604
-0.0218981
0.0139712
0.0222357
-0.0158076
-0.0147177
0.0202185
0.0158376
-0.0200409
0.00312336
0.0265881
-0.00111018
-0.0157057
0.014039
0.0124311
0.015308
-0.120251
0.447972
1.32477
0.743429
-0.589498
-1.05122
-0.335835
0.106106
-0.0276415
-0.015446
-0.00327506
0.00905407
-0.0146547
-0.0152248
0.00519787
0.0114671
-0.0128989
-0.00663553
0.00941015
-0.00599171
-0.011326
-0.01393
0.00354689
0.000515032
-0.0104343
-0.00735583
-0.0067111
0.00389882
-0.0263305
-0.0241698
0.0103022
0.00359351
-0.0104327
0.0067602
0.0431422
0.00178746
-0.016156
0.0278619
-6.8615e-05
-0.0363698
0.00424914
0.0348342
-0.0276075
-0.0262802
0.0508981
0.0146891
-0.0305536
0.0290842
0.0378759
-0.0335947
0.00736738
0.0523813
-0.0298257
-0.0329878
0.0494066
0.0104983
-0.067294
0.0107677
0.035506
-0.0547306
-0.0253856
0.0221159
-0.0348437
-0.0657231
-0.000453847
-0.0214147
-0.0934782
-0.0175438
0.035453
-0.00747463
0.0170286
0.0827678
0.0532598
-0.00623913
0.0327838
0.0278873
-0.0167743
0.0131239
0.026574
0.00121036
0.00530544
0.0318032
-0.0148512
-0.0259611
0.0332712
-0.00767121
-0.0358672
0.0170654
0.0279043
-0.0195835
-0.00686692
0.0347308
-0.00693795
-0.0121175
0.018713
0.00412532
-0.00776171
0.00842282
-0.000177238
0.0272358
-0.115886
0.457162
1.38832
0.78556
-0.609786
-1.06249
-0.360508
0.059084
-0.0160423
0.0376831
-0.0262513
-0.0298593
0.0279704
0.0183744
-0.0403394
-0.0161881
0.0350191
-0.00031271
-0.0488805
0.00266172
0.042336
-0.028587
-0.0345199
0.0283822
0.0178614
-0.0465935
-0.0250768
0.0375052
-0.0193927
-0.0498844
0.00732431
0.0169602
-0.0254343
-0.0119634
0.0425269
0.0195219
0.00541649
0.0190032
0.00317267
-0.0038528
-0.0124409
-0.0370377
-0.0309501
0.0270932
0.014158
-0.0397281
0.014376
0.0540011
-0.00428123
-0.0131577
0.0608793
0.027063
-0.0393795
0.0258752
0.0439671
-0.029036
-0.0223323
0.0457303
-0.0109211
-0.0647359
0.0163661
0.00173486
-0.0752172
-0.0500348
-0.00859079
-0.0607847
-0.0809787
-0.000641577
0.0227603
0.0347233
0.0780132
0.062809
0.0194566
0.0114181
0.0290351
0.00365049
0.000309053
0.0301173
0.0243349
-0.00497347
-0.024168
0.0199609
0.0110891
-0.0373761
-0.000510705
0.03043
0.00323754
-0.0310502
0.00897451
0.0311021
-0.0176716
-0.00914845
0.0265757
0.0140807
-0.0207705
-0.000943236
0.0268373
-0.00555782
-0.0234595
0.057372
-0.123103
0.448916
1.4567
0.833038
-0.641916
-1.13132
-0.354471
0.0994877
-0.0424947
0.00754011
0.00055011
-0.00409538
-0.00637583
-0.00348111
0.00504062
-0.00711936
-0.0122214
0.00495312
0.00795293
-0.00781285
-0.0139765
0.00355876
0.00613605
-0.0295167
-0.0157495
0.0213924
-0.00372447
-0.0352515
-0.0039559
0.0210843
-0.0341141
-0.0436879
0.018324
0.0143362
-0.0269133
0.0126273
0.0616185
0.0128187
-0.00278872
0.0275324
-0.0136824
-0.0370432
0.0138585
0.00774176
-0.0487955
0.00993056
0.0656958
-0.0120665
-0.00731146
0.060778
-0.00278366
-0.048119
0.0561233
0.0491353
-0.0775109
-0.0104876
0.0674936
-0.0416516
-0.0709181
0.0229867
-0.0109367
-0.0906136
-0.0213269
-0.0176045
-0.122409
-0.0848442
0.0230181
0.0143858
0.0195515
0.121671
0.104608
0.00158302
0.0143426
0.0336191
-0.0174112
-0.00588073
0.0556014
0.0123123
-0.0163747
0.0418495
-0.000369198
-0.0490843
0.0135488
0.0315491
-0.0356236
-0.023066
0.0459696
0.000297214
-0.0312688
0.0247637
0.0200435
-0.0177285
-0.000734244
0.0177037
0.000655265
-0.000473478
0.00660626
0.00104542
-0.0107648
0.0443674
-0.143917
0.495029
1.56345
0.884736
-0.666581
-1.20112
-0.372037
0.139964
-0.0432401
-0.0262558
0.00886363
0.0294739
-0.0265138
-0.0314931
0.0372737
0.0168549
-0.0396079
-0.0142061
0.0322749
-0.00630258
-0.050083
0.00909837
0.0346537
-0.0238452
-0.0266743
0.0250892
0.00756286
-0.0474245
-0.0131156
0.0108662
-0.030239
-0.0308103
0.00111462
0.00129744
-0.0119011
0.0209151
0.0368822
0.01986
0.0319824
0.0140363
-0.0110855
-0.00283739
-0.0296536
-0.0704316
-0.024095
0.044338
0.000157283
-0.034447
0.0406636
0.0522381
-0.000728192
0.0296095
0.0564223
0.00125597
-0.00467071
0.0448723
-0.0020179
-0.0564419
0.0119682
0.0196309
-0.0786999
-0.0729232
-0.0233255
-0.0925976
-0.141769
-0.0602653
0.0256587
0.0685374
0.130287
0.120527
0.0292087
0.00464594
0.0183547
-0.00137255
0.000217799
0.0303846
0.0363502
-0.000249253
-0.0213328
0.00451194
0.0205748
-0.0198746
-0.0350359
0.022922
0.0228402
-0.0328237
-0.0100012
0.0385746
0.00567355
-0.0252124
0.0163318
0.0264398
-0.0130986
-0.0126942
0.0231395
0.00508526
-0.0230955
0.0166907
0.00423763
0.0239779
-0.145063
0.53948
1.64394
0.926534
-0.681768
-1.20771
-0.40742
0.0868341
-0.0189914
0.0282541
-0.0184733
-0.0118063
0.0165802
0.00701043
-0.0222445
-0.0157539
0.0276717
-0.00238894
-0.0331398
0.00852484
0.0254684
-0.0154289
-0.0395427
0.0194243
0.0148325
-0.0498734
-0.0133409
0.0369509
0.00184056
-0.0536882
0.0018198
0.0216007
-0.068145
-0.0536924
0.024475
0.0182495
-0.0138529
0.0484102
0.0842658
0.0153777
0.00310263
0.0013622
-0.0437725
-0.0125968
0.033017
-0.0355997
-0.0619508
0.0526749
0.0589858
-0.0313606
0.0364399
0.0826659
-0.049842
-0.0383302
0.0974392
0.00297641
-0.100888
0.00326778
0.0172271
-0.10052
-0.068852
-0.0150079
-0.150125
-0.184461
-0.0454018
0.0100872
0.0550646
0.187958
0.208332
0.048116
-0.0172587
0.0239682
-0.0340597
-0.0453446
0.0586088
0.0551587
-0.0163535
0.0358511
0.044489
-0.0742338
-0.0366412
0.0557028
-0.0184846
-0.0566477
0.0370969
0.0493962
-0.0368743
-0.00936617
0.0390873
-0.00836634
-0.0195301
0.0135098
0.0180662
-0.00425794
-0.000541211
0.00659473
-0.00282615
0.00815913
-0.0196538
0.0334472
-0.137919
0.543151
1.69343
0.964044
-0.706233
-1.23246
-0.396929
0.0871208
-0.0316845
0.0321298
-0.0143702
-0.0258873
0.0118706
0.0242184
-0.0183506
-0.0249124
0.0299785
0.00885953
-0.0333195
-0.00981707
0.0163631
-0.00453506
-0.0362227
0.0102012
0.019854
-0.0205977
-0.00879226
-0.0017774
-0.00895702
-0.0223106
-0.00589543
-0.0120333
-0.0300893
-0.00842165
-0.0273228
-0.0355155
0.0131021
0.0545736
0.0471161
0.0501629
0.0673159
0.00495599
-0.0436727
-0.037657
-0.0790594
-0.0894515
0.0101326
0.0584599
-0.00357884
-0.000998527
0.0429913
0.0350163
0.0562828
0.0864337
0.0237742
-0.0320113
0.0392722
0.0335553
-0.0844134
-0.087311
-0.0277068
-0.116318
-0.267139
-0.205705
-0.00948862
0.146422
0.259177
0.226658
0.0707895
-0.028467
-0.0286979
-0.0323657
-0.0134712
0.055066
0.0626844
0.0258928
-0.0147908
-0.0276926
0.0033117
-0.00908173
-0.0359326
-0.00691289
0.0419405
0.00186537
-0.0428055
0.0208501
0.0273212
-0.0200622
-0.000782193
0.0333754
0.00992453
-0.0232745
0.0103533
0.0124683
-0.0202171
0.00122349
0.0139641
-0.00300043
-0.0168991
0.0560485
-0.159251
0.551632
1.77149
1.00764
-0.731644
-1.31203
-0.408058
0.147188
-0.0430209
-0.0230442
0.0198711
0.0326528
-0.0256955
-0.0239051
0.0329678
0.0156777
-0.0411954
-0.017793
0.0410125
-0.00243073
-0.0502549
0.015574
0.0344891
-0.0334064
-0.0432927
0.027745
0.0216732
-0.0522973
-0.00486459
0.045297
-0.023878
-0.0587573
0.00797295
-0.0028667
-0.0855845
-0.0405572
0.0297139
0.00289117
0.0161274
0.097335
0.0968509
0.0330848
0.006153
-0.0460568
-0.0656118
0.0310226
0.0406119
-0.0939373
-0.0738178
0.0896911
0.0497985
-0.0201253
0.0969643
0.0691313
-0.0836419
-0.0208069
0.0555438
-0.0852897
-0.104089
-0.0252385
-0.187261
-0.354732
-0.251757
-0.0329543
0.149757
0.355908
0.403469
0.144841
-0.054248
-0.0448289
-0.0652083
-0.104674
0.0292325
0.1228
0.0178779
0.0175723
0.067859
-0.0603586
-0.0992033
0.0495765
0.0419017
-0.0897836
-0.0100262
0.0826774
-0.0161745
-0.035292
0.0439651
0.0268388
-0.0310259
-0.00955129
0.0237609
-0.00138785
-0.00643105
0.00896068
0.00487871
0.00177835
-0.00831802
-0.00879033
-0.0043176
0.0458233
-0.17859
0.596173
1.86353
1.04708
-0.741906
-1.31993
-0.431909
0.126322
-0.0207362
-0.00477461
-0.00355237
0.0114995
-0.000523923
-0.0131084
0.00135285
0.0159378
-0.0069211
-0.0113731
0.00717446
0.00158015
-0.015672
-0.00987072
0.00141546
-0.00538395
-0.00924391
-0.0091748
-0.0070367
0.000867984
-0.00109059
-0.013302
-0.00676942
0.0134267
-0.0114039
-0.0571368
-0.0295468
-0.0164479
-0.0710643
-0.0421909
0.0722207
0.104805
0.0707675
0.0954996
0.0837705
-0.0353476
-0.0961016
-0.106504
-0.142457
-0.0664857
0.0602609
0.0616851
0.0343788
0.0541546
0.0140748
0.0132768
0.146474
0.130777
-0.0508347
-0.0819105
-0.00652334
-0.171126
-0.516193
-0.542222
-0.0845262
0.390473
0.541221
0.415599
0.110582
-0.108577
-0.126949
-0.113385
-0.0425788
0.0819717
0.119056
0.0738169
0.0114692
-0.0481877
-0.0466166
0.000684443
-0.028414
-0.0536008
0.0245264
0.0453985
-0.0259234
-0.0155584
0.0452919
0.0121061
-0.0304113
0.0132207
0.0313
-0.011599
-0.00586084
0.0186376
-0.00646974
-0.012382
0.00785905
-0.00185561
-0.00714803
0.00902169
-0.0102847
0.0305676
-0.166755
0.6228
1.90208
1.07339
-0.752355
-1.30336
-0.432159
0.0787526
-0.0213964
0.0453208
-0.0140971
-0.0405319
0.0312404
0.0406938
-0.0363798
-0.0238065
0.0370025
0.0191637
-0.0531887
-0.0147895
0.0490285
-0.0159688
-0.0496575
0.0142025
0.0385544
-0.0349196
-0.0385112
0.0369257
-0.00268893
-0.0479553
0.00908497
0.0323523
-0.0268666
-0.0303154
0.0136899
-0.0631191
-0.11099
-0.0305397
0.00541361
0.00872179
0.0907976
0.162772
0.121788
0.0414597
-0.035529
-0.110549
-0.0424222
0.134603
0.064633
-0.166946
-0.110667
0.076466
0.0350543
0.0209105
0.11977
0.0180497
-0.0698735
-0.0147691
-0.256013
-0.71358
-0.699957
-0.0824464
0.478169
0.725777
0.729753
0.337463
-0.104766
-0.178467
-0.138418
-0.212367
-0.0892458
0.157162
0.148489
0.0536461
0.0800662
-0.0367813
-0.175422
-0.0162119
0.0935574
-0.0549444
-0.0678137
0.0869916
0.0381945
-0.0649453
0.017133
0.053129
-0.0175314
-0.0198856
0.0259924
0.0110538
-0.0148653
0.00124148
0.00251895
-0.00309681
-0.00288665
-0.0109357
0.00134665
0.00630908
-0.0203056
0.042035
-0.169181
0.625539
1.9403