# vtk DataFile Version 3.0
fluid_state
ASCII
DATASET RECTILINEAR_GRID
DIMENSIONS 100 100 1
X_COORDINATES 100 double
0 1 2 3 4 5 6 7 8 9 10 11 12 13 14 15 16 17 18 19 20 21 22 23 24 25 26 27 28 29 30 31 32 33 34 35 36 37 38 39 40 41 42 43 44 45 46 47 48 49 50 51 52 53 54 55 56 57 58 59 60 61 62 63 64 65 66 67 68 69 70 71 72 73 74 75 76 77 78 79 80 81 82 83 84 85 86 87 88 89 90 91 92 93 94 95 96 97 98 99 
Y_COORDINATES 100 double
0 1 2 3 4 5 6 7 8 9 10 11 12 13 14 15 16 17 18 19 20 21 22 23 24 25 26 27 28 29 30 31 32 33 34 35 36 37 38 39 40 41 42 43 44 45 46 47 48 49 50 51 52 53 54 55 56 57 58 59 60 61 62 63 64 65 66 67 68 69 70 71 72 73 74 75 76 77 78 79 80 81 82 83 84 85 86 87 88 89 90 91 92 93 94 95 96 97 98 99 
Z_COORDINATES 1 double
0
POINT_DATA 10000
SCALARS vorticity float 1
LOOKUP_TABLE default
-0.0205812
-0.0429037
-0.00450276
0.0100957
0.015831
0.0258423
0.0492719
0.0823147
0.110102
0.123877
0.126783
0.114049
0.0675224
-0.00933133
-0.0980306
-0.193952
-0.284658
-0.346583
-0.371668
-0.371865
-0.364013
-0.356556
-0.35359
-0.364052
-0.38796
-0.403992
-0.411431
-0.424757
-0.43937
-0.445039
-0.447009
-0.451291
-0.451428
-0.443481
-0.440262
-0.443783
-0.439401
-0.422982
-0.406758
-0.389766
-0.364885
-0.341971
-0.324979
-0.30495
-0.274356
-0.243068
-0.213606
-0.178905
-0.145092
-0.115356
-0.0784379
-0.0358619
0.00574706
0.0489892
0.098409
0.138132
0.16967
0.209966
0.246885
0.271513
0.305377
0.340383
0.354472
0.361336
0.378063
0.391896
0.397012
0.412563
0.432868
0.433127
0.422884
0.426915
0.430832
0.420941
0.423754
0.438313
0.441738
0.443541
0.450194
0.448095
0.424092
0.382015
0.323017
0.243404
0.155765
0.0783884
0.0190331
-0.0212562
-0.0363424
-0.0336327
-0.0214754
-0.00287926
0.0129271
0.023426
0.0300764
0.0271114
0.0192267
0.0201402
0.0433918
0.016883
-0.0704362
-0.095493
-0.00830697
-0.0249623
-0.0266915
0.0104949
0.0356628
0.0496738
0.105272
0.178948
0.198641
0.187357
0.180145
0.11309
-0.0451679
-0.216633
-0.363542
-0.507049
-0.642784
-0.690625
-0.667838
-0.657101
-0.650403
-0.632652
-0.629319
-0.657886
-0.697799
-0.727014
-0.739226
-0.750225
-0.789309
-0.791442
-0.754765
-0.750832
-0.783047
-0.756883
-0.687377
-0.713571
-0.725149
-0.623748
-0.574879
-0.609526
-0.559611
-0.448262
-0.446235
-0.45891
-0.356665
-0.262388
-0.279489
-0.24849
-0.0871018
-0.0326552
-0.0408521
0.086981
0.217347
0.224751
0.256414
0.39423
0.45641
0.442486
0.506801
0.591773
0.592374
0.584443
0.653536
0.688879
0.679312
0.705201
0.728446
0.729745
0.716075
0.715775
0.719803
0.738652
0.757926
0.752268
0.785029
0.827931
0.7992
0.742598
0.712236
0.615899
0.425732
0.288861
0.187137
0.0506924
-0.0476797
-0.0471522
-0.0260991
-0.0383497
-0.00203749
0.0673114
0.0806589
0.0767359
0.0941222
0.0913501
0.0613583
0.0430615
0.0956825
0.0563118
-0.069321
-0.0798709
0.00421896
-0.0162448
-0.0295943
-0.00905559
-0.0208869
-0.0239325
0.00650533
0.0312015
0.0401099
0.0547967
0.0796298
0.0686179
0.0320079
-0.0019575
-0.0715904
-0.136105
-0.197492
-0.241213
-0.257711
-0.239009
-0.207675
-0.220323
-0.202705
-0.175015
-0.204745
-0.250571
-0.232237
-0.202005
-0.263189
-0.267484
-0.212186
-0.217559
-0.274071
-0.253903
-0.171776
-0.234661
-0.266859
-0.17291
-0.164679
-0.219048
-0.18417
-0.110502
-0.142959
-0.156936
-0.110146
-0.0809781
-0.0898796
-0.0873124
-0.00840296
-0.00535738
-0.00314945
0.0568842
0.0633189
0.0882072
0.118656
0.116921
0.119827
0.174932
0.165525
0.118818
0.17985
0.211464
0.17672
0.17746
0.255333
0.253428
0.173074
0.235007
0.281872
0.214231
0.191462
0.278172
0.287809
0.210569
0.263524
0.323419
0.265762
0.208562
0.227113
0.191044
0.0695137
0.0370892
0.0254287
-0.0177621
-0.0438156
-0.0247867
0.0119728
0.0146269
0.0258713
0.0455679
0.0546998
0.0525345
0.0319513
0.0371347
0.0281291
0.00463155
0.0747792
0.0661932
-0.0989874
-0.156948
-0.0446918
0.0270236
0.0220513
-0.0039226
-0.0272022
0.0143321
0.0248928
-0.0349175
-0.0344528
0.00218229
-0.0211765
-0.0654595
-0.0235631
0.0367004
0.00489829
0.00946768
0.0683493
0.0928688
0.0474763
0.0337259
0.0792498
0.053251
0.0251833
0.0422928
0.0777837
0.0770692
0.0521715
0.0658021
0.0824047
0.0881355
0.0371076
0.0445693
0.099395
0.0517413
0.0121874
0.0411346
0.0905508
0.0317705
-0.00664453
0.0906995
0.082809
-0.0168117
0.0120062
0.116579
0.0316678
-0.0404383
0.0692401
0.0698367
-0.0326693
-0.044612
0.0607656
0.0302952
-0.0881204
0.000727499
0.0518604
-0.0719664
-0.106689
0.0147186
-0.0163466
-0.12345
-0.0458596
-0.0137912
-0.0834559
-0.101679
-0.0355431
-0.0365803
-0.0942634
-0.0496932
-0.038227
-0.0587221
-0.0549602
-0.0564057
-0.06282
-0.0584978
-0.0507242
-0.0946968
-0.0750464
-0.0381523
-0.0714736
-0.0701919
-0.00476407
0.0238884
-0.0298822
0.00786392
0.0584681
0.000125241
-0.0172544
0.0268377
0.0217118
-0.0314823
-0.0164009
0.01479
-0.0244916
-0.0265993
-0.0181911
0.0293324
0.145908
0.100087
-0.132493
-0.220346
-0.0571869
0.0371316
-0.00316211
-0.00408846
0.00266493
-0.00338587
-0.0164027
-0.00166768
0.0173037
-0.000314197
-0.00311039
0.0162795
0.00679232
-0.0195604
-0.0123986
0.00540308
-0.0252589
-0.0246645
0.00338247
-0.0125777
-0.0323062
-0.015521
0.00385843
-0.0296722
-0.030893
0.00859376
-0.00375274
-0.037755
-0.0143152
0.0167583
-0.0296971
-0.0376569
0.0144069
-0.00518406
-0.0407529
-0.0168697
0.00685613
-0.0384366
-0.0468257
-0.00296654
-0.0190598
-0.0346274
-0.00814336
-0.00105095
-0.0179541
0.00573531
0.0110415
-0.0058929
0.0372582
0.0364895
-0.00975194
0.00730407
0.0319055
-0.0103974
-0.0380889
0.02492
0.0283612
-0.040449
-0.0257714
0.0419279
0.00785084
-0.0486869
0.0381729
0.070966
-0.0202723
-0.0078969
0.0756794
0.0326452
-0.0402691
0.028946
0.0678666
-0.0135994
-0.019051
0.051132
0.0344596
-0.0209846
0.0207156
0.0546518
0.0114703
-0.00207805
0.0251986
0.0192658
-0.00937881
-0.000872054
0.00544262
0.00310822
0.00316146
-0.0117436
-0.00446726
0.0102193
-0.00188279
-0.00518797
0.0051983
0.00904677
-0.0350767
0.063972
0.227411
0.133634
-0.163666
-0.262552
-0.0579439
0.0213217
-0.0288033
0.0130938
0.0254197
-0.0145214
-0.0286367
0.0179563
0.0122761
-0.0284579
-0.0134726
0.0322994
0.00732486
-0.0393231
0.00596106
0.0342673
-0.00712871
-0.0242733
0.0126017
0.02247
-0.0178106
-0.0151858
0.0149782
0.0224698
-0.00811887
-0.0187521
0.0183663
0.0250828
0.000332221
-0.0142236
0.0450334
0.0459816
-0.0344141
-0.0124997
0.0476894
0.00987352
-0.0630921
0.00189552
0.060667
-0.0496189
-0.077509
0.0404534
0.0376886
-0.0828959
-0.0030123
0.107056
-0.00613235
-0.0394991
0.0711877
0.0774307
-0.0508095
-0.027491
0.0788381
-0.0140111
-0.0829304
0.0067782
0.035306
-0.0600015
-0.046683
0.0410244
-0.00828366
-0.0416043
0.00818891
0.0230154
-0.0209337
-0.0146571
0.0179022
-0.0152495
0.00140697
0.00473653
-0.0199425
0.00646074
0.0226751
-0.014278
-0.0283207
0.0342943
0.00896616
-0.0488184
0.00318019
0.0336451
-0.0221982
-0.0386092
0.0394457
0.0224212
-0.0430696
0.00962465
0.0395008
-0.00925093
-0.0183503
0.0294664
0.0128288
-0.0260425
-0.00747231
0.015768
-0.0350151
0.0752306
0.279633
0.167796
-0.186476
-0.315769
-0.113781
0.012375
0.0104052
0.0086104
-0.022348
0.00154123
0.0197144
-0.00695269
-0.0276308
0.0258697
0.0171198
-0.0307914
-0.0148712
0.01172
-0.0018306
-0.0396678
0.0147767
0.0360969
-0.0139963
-0.0117101
0.016268
0.0138914
-0.0368298
-0.00669686
0.0210687
-0.011573
-0.0160471
0.00509737
0.0272665
-0.0247986
7.05774e-05
0.0280547
-0.00484647
0.00650305
-0.00310904
0.00684945
-0.0125798
-0.0177992
-0.0113987
-0.025248
-0.00681107
-0.0350476
-0.0255573
0.00824138
0.0313186
-0.00439258
0.0129033
0.0961544
-0.0184488
-0.0240641
0.070526
0.0123211
-0.0519935
-0.00817233
0.0393777
-0.0658029
-0.0683771
0.0312888
0.0219544
-0.0427566
-0.0180816
0.0760122
-0.0134715
-0.0496328
0.049071
0.0369895
-0.0311339
-0.0276984
0.0629295
0.00244344
-0.0525726
0.0236469
0.024368
-0.0208166
-0.0226091
0.028508
-4.1612e-05
-0.018241
0.0128945
0.00261583
0.0148874
0.00848796
0.0139136
0.0127663
0.01439
0.00663338
-0.0309093
0.00466661
0.00765168
-0.0233384
-0.00778522
0.014744
-0.0085003
-0.00967527
-0.00820539
0.115884
0.322228
0.191672
-0.198974
-0.366632
-0.138124
0.0317333
0.0111374
-0.00944822
-0.0217648
0.00785322
0.0101334
-0.0148366
-0.0230177
0.0200009
0.00173813
-0.0236362
0.00535166
0.0260588
0.013325
-0.0283822
0.00549334
0.0109793
-0.015278
-0.00582254
-1.91197e-05
0.02107
-0.0055332
-0.0183388
-0.0132549
0.0122949
0.00575855
-0.0389001
0.0212763
0.0299506
-0.00790328
-0.0242295
0.0311815
0.0617883
-0.0460774
-0.0112451
0.0548305
-0.0128863
-0.0785045
-0.0136469
0.0529522
-0.0605371
-0.0630918
0.0472985
0.0431984
-0.066084
0.000709125
0.136946
-0.0213527
-0.0268613
0.0948864
0.00837717
-0.0661384
-0.0146829
0.0277255
-0.0489954
-0.0319236
0.0148067
-0.0111213
-0.018546
-0.0101467
0.0276351
-0.00954735
0.00723966
0.0233628
-0.0242376
0.0111319
0.00774431
-0.0122652
-0.0150938
0.0264887
0.010586
-0.0476317
0.0240565
0.0340767
-0.0305814
-0.020203
0.0532962
0.0177424
-0.051216
0.0233954
0.0287304
-0.0327234
-0.023064
0.0353016
0.0169844
-0.0382208
0.0191691
0.0318849
-0.0186996
-0.013372
0.0128658
0.00364623
-0.00216848
-0.0260568
0.13406
0.358509
0.196307
-0.199595
-0.372993
-0.1059
0.0423824
-0.0465247
-0.0081266
0.0389997
-0.000969417
-0.0301302
0.0235489
0.0302111
-0.0294877
-0.0366967
0.0292379
0.0138164
-0.0442428
0.000298352
0.034134
-0.00409045
-0.0424948
0.0112828
0.0425869
-0.0224501
-0.0207932
0.0279402
0.0239444
-0.0338058
-0.014011
0.0310106
-0.0118069
-0.0197927
0.000499211
0.0278492
0.00251934
-0.0197909
0.0172375
0.00846241
0.00338629
-0.0245663
-0.00795357
0.0254584
-0.0361813
-0.0480737
0.0142891
0.0276814
-0.0467872
0.00212196
0.0746493
0.00382992
-0.0191806
0.0258262
0.0622439
-0.0335652
-0.059584
0.0624243
0.000596114
-0.0946087
-0.00343284
0.0598047
-0.0525876
-0.0461858
0.071982
0.0109929
-0.0474912
0.00894404
0.0518682
-0.0146461
-0.0408775
0.042149
0.0145665
-0.0380579
-0.00748312
0.0267528
-0.00296056
-0.0213015
0.0198868
0.00411138
-0.00535
0.00568005
-0.00768185
-0.0046622
0.0146097
0.0118764
-0.00541307
0.0314462
0.0242103
-0.0248669
-0.00373243
0.02703
-0.00658188
-0.0318699
0.0111969
0.0100079
-0.0342863
0.00295863
0.0413811
-0.0518312
0.122596
0.383896
0.196901
-0.18608
-0.354196
-0.124061
0.0337024
-0.0184683
0.00483908
0.000467385
-0.0183737
-0.00817164
0.00260929
0.000944408
-0.0103051
-0.00230682
0.00557208
-0.0088911
-0.00427621
0.0106554
0.00431315
0.00258212
0.00975013
0.00439031
-0.00697415
-0.000926862
-0.00455076
-0.0211388
0.00328054
0.0206428
-0.0135644
-0.0196819
0.0146858
0.00378778
-0.0382285
0.00180497
0.0471052
0.00241884
-0.0215366
0.0236485
0.0399066
-0.037122
-0.0361223
0.0526971
-0.00128839
-0.0737275
0.00647965
0.0497148
-0.0446959
-0.0349751
0.067122
0.0168828
-0.0416879
0.0319942
0.0479773
-0.0357906
-0.0161424
0.043135
-0.0190645
-0.0378722
0.013401
-0.0192018
-0.0326917
0.02918
0.00608428
-0.0348202
0.0228211
0.0252812
-0.0345548
-0.00309986
0.0421276
-0.0132182
-0.0399396
0.0266107
0.026049
-0.0430923
-0.0136675
0.0489638
-0.00779181
-0.0463296
0.0332701
0.0390175
-0.0378708
-0.00542939
0.0560687
0.00218836
-0.0286708
0.020035
0.0147241
-0.0287314
-0.00853522
0.033925
0.000557468
-0.0228867
0.00429023
0.0115774
-0.00667127
0.00156657
0.0257348
-0.0422637
0.131613
0.380972
0.194105
-0.169262
-0.35179
-0.170217
0.0186928
0.0196365
0.00444381
-0.0365542
0.0123939
0.0463048
-0.0274998
-0.0349538
0.0241734
0.0254808
-0.0434788
-0.0291287
0.0437397
0.00969887
-0.039834
-0.00280979
0.0385732
-0.0166311
-0.0480813
0.0239274
0.0421897
-0.0161777
-0.027459
0.0333586
0.0163286
-0.0334803
-0.00532652
0.0201283
0.0146556
-0.0255487
-0.0213066
0.0263
0.0128576
-0.0400277
-0.017383
0.0522363
-0.00393242
-0.0538535
0.0290777
0.0517184
-0.0384172
-0.0339292
0.0669885
0.0157576
-0.0528092
0.00520733
0.0374627
-0.00365244
-0.0630367
0.0098174
0.0572185
-0.058061
-0.0475036
0.0663911
0.0139744
-0.0783921
0.0265172
0.0666569
-0.0559842
-0.0221566
0.0569285
-0.000538529
-0.0418541
0.0172098
0.0235509
-0.0354745
-0.00470683
0.0118032
-0.0104632
-0.000333692
0.00784455
0.00119895
-0.00505735
0.0168403
-0.00394803
-0.0155435
0.0346909
0.027095
-0.0216681
-0.00280878
0.0385084
-0.0208088
-0.0338631
0.0436451
0.0173405
-0.0312852
0.00745602
0.0365915
-0.0217052
-0.0242892
0.0316374
-0.0023613
-0.0226306
-0.0202473
0.16313
0.360272
0.178944
-0.16385
-0.330079
-0.107207
0.0467675
-0.0239098
-0.00682499
0.00731515
-0.00219188
-0.0199442
-0.0128028
0.0163791
-0.0109133
-0.0131134
0.0109834
0.0115103
-0.0224424
-0.0259724
0.0307054
0.0131704
-0.0210703
0.00521678
0.0301412
-0.0098654
-0.0311208
0.0283046
0.00908398
-0.0261179
-0.00963423
0.0259968
0.011384
-0.040828
0.0207199
0.0247268
-0.0377378
-0.0236404
0.0300577
0.0196437
-0.0450865
0.0220158
0.0425179
-0.039776
-0.00748058
0.0487684
0.00877713
-0.0191706
0.0406244
-0.00118344
-0.0305757
0.00342905
-0.0340369
-0.000484822
-0.00335883
-0.0158293
0.009821
-0.0112802
0.0105801
0.000193487
-0.0153503
0.0270719
0.0300094
-0.03774
-0.0140623
0.0556752
-0.0431147
-0.0503935
0.0552138
0.0118986
-0.0610684
0.00046943
0.0665361
-0.0372073
-0.0462673
0.0574903
0.0128183
-0.0522929
-0.00713088
0.0536357
-0.00555474
-0.0279221
0.0428723
0.0165833
-0.0307116
-0.00268655
0.0302109
-0.000450147
-0.00191401
0.0303056
0.00122817
-0.0148323
-0.0119623
-0.0044734
0.00109484
-0.00103977
0.00844984
0.00115897
0.00866547
-0.0294321
0.127898
0.344237
0.177996
-0.172708
-0.298958
-0.0736829
0.030638
-0.0424654
0.00742944
0.0338449
-0.0103386
-0.0359448
0.011651
0.0228883
-0.0409323
-0.0239321
0.0344298
0.0200522
-0.0353207
-0.0201565
0.034934
-0.00623699
-0.0354431
0.0105087
0.037241
-0.0149168
-0.0403467
0.0252722
0.0205902
-0.00174465
-0.00352161
0.0142297
0.0284055
-0.0301634
-0.0272906
0.0111628
0.0342149
-0.027232
-0.0554495
0.0475989
-0.00731736
-0.0695217
0.0210132
0.0744298
0.0136432
-0.0281004
0.0483448
0.0443807
-0.0303127
-0.0494218
0.0375995
0.0246394
-0.106723
-0.00531697
0.0428922
-0.0560187
-0.0402307
0.0330974
0.0553059
-0.0274293
-0.0166111
0.0592648
0.00458306
-0.0530932
0.0187845
0.044217
-0.0504852
-0.00687373
0.0306428
-0.0292785
-0.00362256
0.00793235
-0.012239
-0.0103989
0.0181178
-0.0103811
-0.0308501
0.0413562
0.0171815
-0.0251524
0.0239034
0.0440763
-0.0184872
-0.0301182
0.0527493
0.0155428
-0.0555808
0.0101887
0.0425916
-0.0337074
-0.0288687
0.051244
0.00615406
-0.0355516
0.0365829
0.0280186
-0.0340201
-0.0109677
0.0414353
-0.0414433
0.0831211
0.357152
0.207924
-0.203743
-0.316899
-0.12207
-0.000372705
0.0201365
0.00447729
-0.0405163
0.00253286
0.0347599
-0.00872081
-0.0414845
0.00898949
0.0282384
-0.0339963
-0.029104
0.0421643
0.0221377
-0.0517215
-0.0259646
0.0449134
-0.00178768
-0.0482457
0.0269886
0.0596614
-0.01301
-0.0472887
0.03472
0.0379394
-0.0465442
-0.015286
0.0525412
0.0128109
-0.0676049
0.00620306
0.0380752
-0.0635217
-0.0231933
0.0245754
0.00454057
0.00433583
0.0186046
0.0334217
0.0270538
0.0234643
-0.00602803
0.0263137
0.0195504
-0.0451091
-0.02604
-0.0109275
-0.0245763
-0.0682361
-0.00531431
0.0493489
-0.036444
-0.00944891
0.0649808
0.0307219
-0.0304185
0.00392351
0.049601
-0.0127759
-0.0582183
0.000627227
0.0435701
-0.0591161
-0.048983
0.0798176
-0.00117821
-0.0698259
0.026605
0.0501371
-0.0389731
-0.0271785
0.0626329
0.0173443
-0.0378605
0.00438306
0.0264546
-0.00610113
-0.0129684
0.0174977
0.00858814
-0.00238091
0.0178636
0.0138278
0.00138765
0.00133387
-0.0119629
-0.0122827
0.00215556
0.00182046
-0.00945251
0.0136014
0.00857981
0.00286285
-0.023934
0.113141
0.397516
0.250358
-0.261258
-0.390535
-0.111243
0.0249344
0.0158273
-0.00879237
-0.0290456
0.00398697
0.00437218
-0.0129797
-0.0146247
0.0185368
0.000357045
-0.0309428
-0.00759993
0.021656
0.00336944
-0.0204066
0.00616248
0.0153832
-0.0131037
-0.0192902
0.00977727
0.00873625
-0.00233549
0.00887654
0.00230693
0.00774821
0.0109666
-0.0148804
0.000376234
0.0345654
-0.019334
-0.0450785
0.0157765
0.00395091
-0.0376661
-0.0153244
0.0389003
0.0209753
-0.0341865
0.0130722
0.0764044
0.0288758
-0.045917
0.0324995
0.0524891
-0.0874947
-0.0619323
0.0416216
-0.0240687
-0.0852887
0.024846
0.0469237
-0.0397071
-0.00276542
0.0447929
0.0165929
-0.00991215
0.012039
0.0204604
-0.010909
-0.0169092
-0.00845383
-0.00418983
-0.00982289
0.00108748
-0.00769249
-0.0208614
0.0259284
0.00423585
-0.0381348
0.0328347
0.0480729
-0.043415
-0.0156657
0.0711256
0.0110097
-0.0416507
0.0337055
0.044822
-0.0503581
-0.0257126
0.0552326
-0.000518061
-0.0518438
0.0191555
0.0341487
-0.0418529
0.00248845
0.0535384
-0.0117134
-0.0291888
0.0370147
0.00531567
-0.0246783
-0.0207509
0.13993
0.455796
0.299694
-0.321644
-0.460716
-0.0742029
0.0291152
-0.0642813
-0.00459451
0.0516732
-0.000562177
-0.0547243
0.0216753
0.0413429
-0.0281172
-0.0506014
0.0342432
0.035416
-0.0528674
-0.029284
0.0479138
0.00935713
-0.0780229
-0.00795067
0.0634564
-0.00805644
-0.0583646
0.0266887
0.0852276
-0.0294392
-0.0449551
0.0685218
0.029056
-0.0725349
-0.0246977
0.0538368
-0.0115336
-0.0513332
0.00140641
0.0161258
-0.0100432
-0.032005
0.0133466
0.0721646
0.0276019
-0.0257054
0.0422241
0.0520289
-0.0443415
-0.0316301
0.0295065
0.00197751
-0.058857
-0.0436937
0.0321373
-0.0152404
-0.0923215
0.0427204
0.0896251
-0.0493842
-0.00882428
0.0870548
-0.00101137
-0.0736511
0.00678894
0.0399154
-0.0405025
-0.0491799
0.035847
0.0298336
-0.0613387
-0.0180624
0.0578606
-0.00503516
-0.0409949
0.0308636
0.0459152
-0.0193893
0.000871089
0.0300621
-4.46522e-05
-0.00629477
-0.00953685
0.00606128
0.0187586
0.0147271
-0.000886769
-0.000528682
0.00948379
-0.0192203
-0.0150428
0.0155382
0.0145818
-0.015428
-0.000823011
0.0168713
-0.0118778
-0.01704
0.0387112
-0.0366087
0.128158
0.552628
0.362363
-0.373123
-0.552401
-0.142594
0.026853
-0.0164846
0.00430584
-0.0168069
-0.0144041
0.00203048
0.0108346
-0.0161311
-0.00504826
0.00964365
-0.00220199
-0.0252569
-0.00679806
0.0179875
-0.00703341
-0.013832
0.0053328
0.0162126
-0.0267775
-0.0122146
0.0318349
-0.0133181
-0.0229195
0.0146575
0.0254186
-0.00507789
-0.000334168
0.0266127
-0.0141569
-0.0139067
0.000738425
-0.000855754
-0.0101638
-0.0167388
0.032801
0.00227466
-0.0348086
0.0394258
0.039727
-0.0527198
0.00202058
0.0787097
-0.0314207
-0.043774
0.0366253
-0.00393273
-0.0565358
-0.0340736
0.0369155
-0.00411433
-0.0492691
0.0491973
0.0160726
-0.0417899
0.0333448
0.0182019
-0.0249766
0.0271829
0.0190382
-0.0501162
-0.00626443
0.0114122
-0.0460099
-0.0214293
0.0328223
0.0262379
-0.0388461
0.0104363
0.0772998
-0.0219874
-0.0350627
0.0641751
0.0455298
-0.0644279
-0.0159141
0.0810442
-0.0169826
-0.0443276
0.0431495
0.0228516
-0.0475092
-0.0104432
0.048957
-0.0121599
-0.0244272
0.0343741
0.00308227
-0.0422843
0.0063665
0.0313407
-0.0153038
-0.00846202
0.0511365
-0.0698105
0.157389
0.674257
0.416638
-0.407125
-0.679988
-0.243978
0.0398947
0.0228454
0.00133458
-0.0543661
0.0131195
0.0524319
-0.021578
-0.045671
0.0304567
0.0391434
-0.0417102
-0.0448135
0.038178
0.017351
-0.0598646
-0.0184653
0.0463868
-0.000942623
-0.0768718
-0.00103728
0.0672845
-0.0215632
-0.0430836
0.0564399
0.0635696
-0.0506728
-0.03316
0.0645616
0.00690066
-0.043724
-0.0195161
0.0274917
0.0198892
-0.0605581
-0.008907
0.0760222
0.013749
-0.0554131
0.0230727
0.0605053
-0.0296143
-0.0399113
0.0187844
0.0547494
-0.03507
-0.0588413
0.0709322
0.00955994
-0.0773135
-0.00586564
0.0600556
0.00208356
-0.0797608
0.0404963
0.063037
-0.0857446
-0.0297312
0.0788796
-0.0176553
-0.0793272
0.0382184
0.0272377
-0.0540004
-0.00841593
0.0256925
0.0186438
-0.0272677
-5.85297e-05
0.0491523
0.00122958
0.00115453
0.00429826
0.00456112
0.0215759
0.00942375
0.00268336
0.0103363
0.0318316
-0.0178482
-0.0277832
0.0343966
-0.00832009
-0.0417445
0.00841745
0.0224147
-0.0188415
-0.00734156
0.044936
0.00190504
-0.0264967
0.0172341
-0.0016689
-0.0126423
-0.0686192
0.260016
0.75683
0.430904
-0.408254
-0.733553
-0.215108
0.0906206
-0.0514189
-0.00676114
0.0220053
-0.00288385
-0.0346934
-0.0114933
0.0373022
-0.0101466
-0.0362836
0.0184337
0.0316278
-0.0306545
-0.0511573
0.0251643
0.0254264
-0.0514057
-0.0181564
0.0552167
0.00731167
-0.0701738
0.000495409
0.0549378
-0.0286356
-0.0364961
0.0437353
0.0492784
-0.027504
-0.0327955
0.0632304
0.0108696
-0.0635147
0.0296483
0.0457088
-0.0358902
-0.0154688
0.0423533
-0.0215431
-0.0353574
0.0244782
-0.00681642
-0.0239253
-0.00735123
0.0170522
-0.0125
-0.0194166
0.0408803
0.0027884
0.00295846
0.0163525
-0.013724
-0.0203825
-0.0170053
0.0217808
-0.0175106
-0.0033243
0.0530186
-0.0391555
-0.0577824
0.0354996
-0.000182216
-0.084693
0.0249865
0.0668378
-0.066512
-0.00747298
0.0947361
0.0192141
-0.0488511
0.0300484
0.0859555
-0.0363726
-0.0431056
0.0760077
0.0205508
-0.0696652
-0.00529289
0.0523964
-0.0222696
-0.0265605
0.0489678
0.00349549
-0.0274681
0.0212646
0.0190656
-0.0222404
-0.017036
0.0209013
-0.0188845
-0.0185564
0.0257843
-0.0014485
0.00176055
-0.0647587
0.286464
0.772306
0.421466
-0.375724
-0.712329
-0.228047
0.0845031
-0.0613407
0.00936214
0.0280334
-0.0197249
-0.0232531
0.0109317
0.0331855
-0.0288058
-0.028207
0.0240268
0.0135761
-0.0320328
-0.0239008
0.0264164
-0.00321564
-0.0443748
-0.00928788
0.0284364
-0.0130988
-0.0509602
0.023927
0.0350404
-0.0405239
-0.0128406
0.0463093
0.0273524
-0.0137666
-0.0100164
0.0426411
0.0244938
-0.0392602
-0.00857489
0.0549986
0.0149284
-0.0579336
-0.00601153
0.0367934
-0.0169882
-0.0513126
-0.0120074
0.0568538
-0.0171849
-0.0629281
0.0557663
0.071365
-0.0378228
-0.0305396
0.0846908
0.0240099
-0.0639745
0.00158292
0.032322
-0.0376443
-0.0869805
0.0171892
0.0344716
-0.0700155
-0.00955611
0.0568961
-0.0273934
-0.0502453
0.0329966
0.0159668
-0.0197716
0.0237819
0.0176516
0.00834654
0.0202555
-0.00256856
-0.00342624
0.0357472
0.0312782
-0.0200236
-0.00829181
0.0526179
0.0180358
-0.0413796
0.0167409
0.0263281
-0.0605407
-0.0357712
0.0469001
-0.00464116
-0.0350562
0.0433333
0.0225301
-0.0311384
0.00613635
0.0370093
-0.0295323
-0.0265414
0.0530827
-0.0928901
0.247929
0.782761
0.411569
-0.333379
-0.685438
-0.308637
0.0638687
0.0239759
0.0129438
-0.0491433
-0.00742966
0.0551958
-0.0209344
-0.0538319
0.0146215
0.0521357
-0.0319551
-0.0522395
0.0381225
0.035892
-0.0660787
-0.0533663
0.0676257
0.0145963
-0.0875545
-0.005821
0.0744487
-0.0141094
-0.0823341
0.0332064
0.0755973
-0.0611782
-0.0670082
0.0899872
0.0702815
-0.0629017
0.0116827
0.103869
-0.0150457
-0.0755259
0.0242534
0.0329693
-0.0312819
-0.0324009
-0.00105718
0.00941517
-0.0522405
-0.0463956
0.0117005
0.00236575
0.0121446
0.0201298
0.0323211
0.0504572
-0.00903273
-0.0277442
0.0458758
0.00357658
-0.0587973
0.000528603
0.0184429
-0.0377366
-0.0677787
0.00795526
0.0299398
-0.0673336
-0.0271423
0.0887928
0.000676747
-0.0727103
0.0785141
0.0688394
-0.0764093
-0.00248895
0.102991
0.0200497
-0.0537841
0.0422722
0.0583569
-0.037462
-0.026203
0.0383131
0.0125539
-0.0508879
0.0046915
0.0269125
-0.0227488
0.0115093
0.0289322
-0.0138765
-0.0148811
0.0130487
-0.00772877
-0.0179836
0.00893951
0.0103671
-0.0252812
-0.000987009
0.0377021
-0.0965819
0.264078
0.778562
0.394029
-0.300897
-0.627209
-0.249305
0.0851094
-0.00654664
-0.0134752
-0.00342834
0.000681871
-0.00669116
-0.0174231
0.000359651
0.00590602
-0.00463621
-0.00894765
0.00999041
-0.00171768
-0.0113935
-0.010121
-0.00942379
0.00275775
-0.0183883
-0.00676761
0.00623515
-0.0167917
-0.0354264
-0.0146078
0.0147598
-0.0139191
0.00171371
0.0275854
0.0116359
0.0169638
0.0151547
0.0351553
0.0444798
0.0127811
-0.000625125
-0.00438917
-0.0174148
-0.0223328
-0.0411143
-0.0562801
0.0274483
0.0077345
-0.0656103
0.0308573
0.0601052
-0.00945167
-0.0240256
0.0484567
0.0860664
-0.024979
-0.00949956
0.0720889
-0.0380052
-0.0729975
-0.0122607
-0.0198745
-0.0351787
-0.0389162
-0.000881791
0.00442206
-0.0243703
-0.00398074
0.0246832
0.00152666
0.000779366
0.0305791
-0.0031302
0.0365466
0.0363763
-0.0444775
0.0227489
0.063095
-0.00923487
-0.0321894
0.0602636
0.0537136
-0.0678508
-0.0134884
0.048932
-0.0196018
-0.0546293
0.0229223
0.0344555
-0.0554216
0.00274514
0.0516675
-0.0320007
-0.0193355
0.0416388
-0.0105129
-0.037853
0.028386
0.0246459
-0.01937
-0.0700305
0.27996
0.714042
0.375723
-0.282927
-0.523154
-0.140841
0.0578301
-0.0754834
-0.00435387
0.0730723
0.00177279
-0.0601797
0.0196302
0.0458811
-0.0344979
-0.0581002
0.0270822
0.0515859
-0.0566682
-0.0428235
0.0575615
0.0178426
-0.0840048
-0.0363413
0.0777493
-0.010667
-0.0839985
0.0235304
0.0725799
-0.047386
-0.107178
0.0637018
0.0786753
-0.0875379
-0.00630866
0.127603
0.0445497
-0.0629824
0.0203315
0.1004
-0.0121996
-0.0930755
-0.0160439
0.0432964
-0.0708677
-0.0879882
0.0186527
0.0192249
-0.0192655
-0.0496133
0.0358677
0.0851883
-0.0191854
-0.00117883
0.069925
0.0489853
-0.0433196
-0.0457103
0.071056
-0.0318096
-0.130962
0.0049951
0.0180958
-0.085675
-0.0475938
0.077313
0.0412393
-0.0377694
0.0454963
0.101011
-0.0172213
-0.0828366
0.0659751
0.0572937
-0.0662369
0.0237844
0.0758186
0.0196844
-0.0206528
0.00149297
0.021732
-0.0236579
-0.00407771
0.0105928
-0.00481029
-0.00804208
-0.0045508
0.00128344
-0.0138378
0.00897396
0.00144737
-0.0202151
0.0146747
0.0101943
-0.0114144
-0.00852154
0.00273869
-0.0145397
0.00259462
-0.0475059
0.222696
0.679824
0.392884
-0.28686
-0.46738
-0.160047
0.0127972
0.0144977
0.0159759
-0.0324007
-0.0173101
0.01579
0.00412279
-0.0463765
0.00525588
0.0399502
-0.0157629
-0.0266781
0.0167179
0.0234627
-0.0407328
-0.0267391
0.0311772
0.0103784
-0.0369339
-0.0404896
0.0326183
-0.00280588
-0.0784314
-0.000119013
0.0320577
-0.0333331
-0.0497325
0.0335505
0.0840805
-0.0058788
0.0084415
0.0995052
0.0513476
-0.0409319
-0.0141618
0.0284484
-0.0570666
-0.0478417
-0.00569736
-0.0430283
-0.0259566
0.00515168
0.0152794
-0.0115303
0.0306836
0.0801254
0.00488002
0.0102355
0.0451348
0.00603073
-0.0317783
-0.0145109
0.00855671
-0.0538842
-0.0396713
-0.0184843
-0.0719535
-0.0220064
0.0150475
-0.00873691
0.0251173
0.0631166
0.00910064
-0.026763
0.0393236
0.0363433
-0.0303673
-0.00771133
0.093528
0.051084
-0.0877279
0.0165251
0.090365
-0.0525127
-0.0443956
0.0635871
0.0211462
-0.0772045
-0.0105968
0.0563769
-0.0274681
-0.0212231
0.0422631
-0.00308511
-0.0419783
0.0217431
0.0149746
-0.0598188
0.00931189
0.0411887
-0.0281971
-0.024807
0.0569318
-0.0627002
0.160486
0.720986
0.436143
-0.32148
-0.503751
-0.180314
0.00784111
0.0415961
0.00363897
-0.048655
0.0228104
0.0446026
-0.00828954
-0.0442668
0.0204351
0.0250638
-0.0416167
-0.0363395
0.0374981
0.0303337
-0.0582961
-0.0199161
0.0425896
-0.00626605
-0.0524123
-0.00699427
0.0565793
-0.0312485
-0.0912266
0.030774
0.0441804
-0.0760826
-0.0469607
0.0766185
0.0346698
-0.0710758
0.0321103
0.13424
0.0416094
-0.0422662
0.0310771
0.0864035
-0.0713236
-0.132108
-0.0104566
0.01151
-0.0517405
-0.0783882
0.0284064
0.0946637
-0.0209477
-0.0534444
0.0576892
0.0844352
-0.033375
-0.0309346
0.0847838
0.0336111
-0.112217
-0.0763482
0.0363841
-0.0855965
-0.127888
0.078117
0.0825576
-0.0354872
0.0391058
0.111941
0.00515195
-0.0674055
0.0330849
0.0884209
-0.000552167
-0.0309272
0.0315068
0.0253716
-0.0239787
-0.00275934
0.019736
0.0152926
0.0227722
-0.0191756
-0.0208507
0.019635
-0.00117812
-0.0176897
-0.0058376
0.00296803
-0.0173781
-0.0159038
0.0122014
0.0145033
-0.00446434
-0.00953642
0.00891941
-0.0122364
-0.00440552
-0.0105338
0.00505176
-0.0602517
0.212715
0.765282
0.463486
-0.369839
-0.542203
-0.0816723
0.0543464
-0.0522904
-0.0126209
0.0410781
0.0136786
-0.0627242
-0.00228292
0.0538781
-0.015229
-0.057846
0.0362972
0.043607
-0.0522324
-0.0394618
0.0508282
0.0393104
-0.0721381
-0.0411389
0.0695117
0.00754755
-0.0899964
-0.00322982
0.0765239
-0.053343
-0.123784
0.0145849
0.0614585
-0.0740635
-0.0612811
0.127336
0.0979688
-0.0781028
0.0177934
0.162214
0.0216633
-0.0765055
0.0123149
0.0337551
-0.0578799
-0.102429
-0.00912417
0.014364
-0.0325119
0.0119513
0.0248292
0.0305932
0.0515938
0.0177114
0.0127804
0.0303759
-0.0251899
-0.0537247
-0.0318538
-0.0372756
-0.0652027
-0.0613805
0.0262428
0.017321
-0.0350056
0.0653465
0.0607216
-0.0570196
0.0340442
0.118642
-0.0255521
-0.0602544
0.0789585
0.0792511
-0.0748872
-0.0448151
0.116916
0.0198282
-0.0998514
0.0139615
0.0596967
-0.0604763
-0.0401581
0.0718316
8.11199e-05
-0.047835
0.03109
0.0235267
-0.0345746
0.00716602
0.0242569
-0.0440607
-0.0228198
0.0400638
-0.0153529
-0.0528926
0.0478597
0.0123199
-0.0367245
-0.0459881
0.269287
0.792024
0.485582
-0.403273
-0.586629
-0.113967
0.037932
-0.0373801
0.0163391
0.00402081
-0.00983041
-0.00553571
0.0121263
0.00987717
-0.0121055
-0.00845841
0.0179242
-0.00306425
-0.0209586
-0.00923227
0.00662691
0.00119705
-0.00750723
0.0103231
0.00797018
-0.0122336
-0.0405902
-0.00852718
0.0178507
-0.0484237
-0.0269332
0.0213211
-0.035203
-0.0710218
-0.012037
0.0544599
0.0101707
-0.00118382
0.101514
0.111719
-0.00219854
-0.0137991
0.0549873
0.00500938
-0.0757309
-0.10805
-0.0325451
0.0283103
-0.05965
-0.0589751
0.0505237
0.0910918
0.00220991
-0.0606051
0.0580331
0.0731287
-0.099819
-0.0821174
0.0168272
-0.0470742
-0.115983
-0.0159074
0.106699
0.0152011
6.98935e-05
0.140634
0.0638186
-0.0879329
-0.00928873
0.0821106
0.0299403
0.0140431
0.0220643
0.0401689
0.0342497
-0.030998
-0.0465614
-0.0309872
0.0193631
-0.0027775
-0.033841
0.0493979
0.0409002
-0.0341285
-0.0198947
0.0343669
-0.00409526
-0.0449314
0.00570669
0.00915308
-0.0227848
-0.000104472
0.0116087
-0.000581549
-0.00114773
-0.00541325
-0.00829474
-0.0179214
0.0289661
-0.0692962
0.246347
0.856878
0.514586
-0.426551
-0.684522
-0.241047
0.0346648
0.0416965
0.0275146
-0.0675667
-0.00056148
0.0768736
-0.0125453
-0.0612281
0.0252787
0.0545604
-0.0508236
-0.0633258
0.0615043
0.0415963
-0.0624523
-0.0393944
0.0727944
0.0308738
-0.104708
0.00158918
0.0983983
-0.0337155
-0.108789
0.00318855
0.0755763
-0.0920773
-0.132622
0.0778932
0.0393581
-0.156456
-0.0532325
0.173399
0.0684839
-0.0713341
0.111578
0.216604
0.0160516
-0.131865
0.0228896
0.0607541
-0.110989
-0.122993
-0.0127433
0.0597556
0.00819724
-0.0301872
0.0529765
0.0716252
0.00466186
-0.0451036
-0.00769877
0.0123397
-0.13386
-0.132306
0.0168536
0.0276213
0.0283817
0.099117
0.117155
-0.028313
-0.0686136
0.0818548
0.0256492
-0.0946109
0.0734179
0.198084
-0.0230848
-0.113224
0.0540245
0.0381859
-0.0887557
-0.0531829
0.0776408
0.0102245
-0.08139
0.030657
0.0266909
-0.0410848
0.0195043
0.0461714
-0.0243756
-0.0212434
0.0409683
-0.0157307
-0.0347222
0.0391257
-0.00249164