# vtk DataFile Version 3.0
fluid_state
ASCII
DATASET RECTILINEAR_GRID
DIMENSIONS 100 100 1
X_COORDINATES 100 double
0 1 2 3 4 5 6 7 8 9 10 11 12 13 14 15 16 17 18 19 20 21 22 23 24 25 26 27 28 29 30 31 32 33 34 35 36 37 38 39 40 41 42 43 44 45 46 47 48 49 50 51 52 53 54 55 56 57 58 59 60 61 62 63 64 65 66 67 68 69 70 71 72 73 74 75 76 77 78 79 80 81 82 83 84 85 86 87 88 89 90 91 92 93 94 95 96 97 98 99 
Y_COORDINATES 100 double
0 1 2 3 4 5 6 7 8 9 10 11 12 13 14 15 16 17 18 19 20 21 22 23 24 25 26 27 28 29 30 31 32 33 34 35 36 37 38 39 40 41 42 43 44 45 46 47 48 49 50 51 52 53 54 55 56 57 58 59 60 61 62 63 64 65 66 67 68 69 70 71 72 73 74 75 76 77 78 79 80 81 82 83 84 85 86 87 88 89 90 91 92 93 94 95 96 97 98 99 
Z_COORDINATES 1 double
0
POINT_DATA 10000
SCALARS vorticity float 1
LOOKUP_TABLE default
0.0153112
0.037409
-0.0609878
-0.229361
-0.287982
-0.358149
-0.535036
-0.636986
-0.654797
-0.788961
-0.955628
-0.982294
-1.02994
-1.208
-1.29573
-1.28099
-1.38924
-1.53453
-1.52092
-1.52503
-1.65962
-1.70373
-1.63703
-1.69962
-1.80368
-1.7492
-1.69759
-1.80303
-1.82902
-1.70799
-1.69757
-1.79966
-1.72955
-1.58733
-1.62902
-1.68661
-1.52503
-1.40966
-1.49326
-1.46532
-1.24651
-1.20051
-1.28208
-1.14565
-0.936373
-0.973801
-0.990903
-0.762938
-0.631299
-0.720647
-0.62606
-0.367075
-0.347306
-0.421906
-0.216638
-0.00526142
-0.0751864
-0.0709993
0.190442
0.303134
0.207795
0.30931
0.550175
0.56688
0.51118
0.678095
0.844341
0.809649
0.823081
0.999249
1.07664
1.03548
1.10227
1.23884
1.24164
1.21305
1.29243
1.36241
1.31427
1.29686
1.34962
1.3474
1.26964
1.25381
1.26098
1.18934
1.074
1.03936
0.994461
0.846993
0.685397
0.640621
0.539604
0.310776
0.145076
0.101298
-0.166494
-0.51012
-0.430702
-0.146677
-0.0304544
-0.256586
-0.131009
-0.293051
-0.750555
-0.819771
-0.810626
-1.2135
-1.53023
-1.46645
-1.61049
-2.07271
-2.17928
-2.10999
-2.42955
-2.78007
-2.68846
-2.74705
-3.12777
-3.23796
-3.08103
-3.29039
-3.5681
-3.48154
-3.38259
-3.67278
-3.82411
-3.64147
-3.59403
-3.91413
-3.95013
-3.66499
-3.67515
-4.02768
-3.87542
-3.50488
-3.66672
-3.97182
-3.55464
-3.24221
-3.57978
-3.67323
-3.05871
-2.97782
-3.3844
-3.13527
-2.50206
-2.7577
-3.03519
-2.41837
-2.00607
-2.55729
-2.48043
-1.65063
-1.65546
-2.27649
-1.74247
-0.991522
-1.44218
-1.83302
-0.935877
-0.556999
-1.2779
-1.19682
-0.21559
-0.367946
-1.01338
-0.425787
0.265015
-0.309799
-0.546575
0.304199
0.459992
-0.212373
0.0512955
0.803482
0.453197
0.00753552
0.600638
0.991931
0.390667
0.339599
0.959447
0.961202
0.376919
0.626964
1.07883
0.824121
0.284461
0.720105
1.03194
0.540202
0.0467471
0.756399
0.814165
-0.0649042
-0.195796
1.22548
0.903233
-0.171399
-0.0753984
-0.547833
-0.240969
0.121288
-0.351056
-0.522796
-0.11439
-0.331366
-0.800065
-0.521125
-0.334912
-0.884865
-0.950702
-0.528955
-0.820125
-1.27569
-0.886103
-0.78432
-1.37362
-1.34945
-0.869097
-1.28646
-1.70129
-1.18988
-1.05006
-1.78902
-1.70853
-1.04772
-1.42865
-2.10765
-1.52369
-1.08563
-1.85361
-2.14454
-1.2697
-1.28748
-2.17037
-1.9358
-1.06925
-1.58429
-2.25987
-1.56794
-1.02717
-1.86965
-2.07708
-1.18176
-1.14238
-2.03063
-1.71033
-0.874986
-1.32114
-2.03649
-1.25562
-0.666843
-1.51588
-1.88862
-0.761247
-0.602217
-1.70459
-1.55869
-0.306559
-0.736958
-1.79688
-1.0324
-0.0431483
-1.04398
-1.6397
-0.425268
-0.104066
-1.34183
-1.17753
0.0313061
-0.446037
-1.39438
-0.546437
0.148892
-0.847235
-1.06813
0.0049756
-0.0736983
-1.01816
-0.476942
0.269969
-0.347992
-0.864744
0.0301994
0.296999
-0.438767
-0.588072
0.384793
0.300222
-0.411489
-0.220101
0.791401
0.239066
-0.382458
0.595363
1.65368
0.52362
-0.255011
-0.169022
-0.432557
-0.373848
0.0169751
0.217157
0.0658553
-0.0330469
0.108057
0.235921
0.117838
0.0402309
0.208966
0.308393
0.131756
0.0965263
0.326398
0.333965
0.0990018
0.175908
0.417341
0.285618
0.0651992
0.29389
0.504565
0.215931
0.0786436
0.506625
0.570588
0.0628735
0.165125
0.763058
0.463678
-0.104826
0.44061
0.905837
0.149665
-0.0804668
0.825617
0.761626
-0.178876
0.222153
1.06345
0.344214
-0.272198
0.694094
0.950337
-0.149826
0.00119609
1.07538
0.472763
-0.417274
0.526354
1.09714
-0.115135
-0.294855
0.983977
0.744802
-0.500871
0.10803
1.1372
0.22318
-0.538424
0.560176
0.940617
-0.224834
-0.258264
0.833865
0.502793
-0.410624
0.160293
0.808056
0.0469159
-0.316241
0.50245
0.567623
-0.26616
-0.0805883
0.675025
0.247975
-0.381461
0.204444
0.647421
-0.0583358
-0.295829
0.409178
0.445139
-0.311892
-0.188653
0.521724
0.230941
-0.552451
-0.0516626
0.652302
-0.0941882
-0.768689
0.177618
0.638202
-0.224058
-0.500658
-0.0330604
-0.329329
-0.456328
-0.230422
-0.153002
0.0525652
0.151622
-0.177098
-0.122582
0.184296
-0.0578383
-0.236923
0.105062
0.0865182
-0.270291
-0.0617661
0.182731
-0.194696
-0.265252
0.152796
-0.0170131
-0.407069
-0.0403179
0.181915
-0.343248
-0.34204
0.262685
0.00722049
-0.56056
-0.0544124
0.391376
-0.311297
-0.546856
0.269174
0.255788
-0.570805
-0.285654
0.470148
-0.0571066
-0.647109
0.0780125
0.448554
-0.392061
-0.486818
0.378249
0.201745
-0.586985
-0.161241
0.485385
-0.124516
-0.58343
0.153485
0.417423
-0.387141
-0.464003
0.37142
0.262283
-0.56689
-0.290388
0.507579
0.0503262
-0.67594
-0.0495852
0.559272
-0.229502
-0.6562
0.255402
0.444424
-0.522193
-0.429957
0.501964
0.131616
-0.668212
-0.0421482
0.52874
-0.262893
-0.529134
0.345088
0.262953
-0.529546
-0.111594
0.527971
-0.124935
-0.473773
0.279483
0.387752
-0.363926
-0.254908
0.391411
0.152152
-0.40667
-0.0210692
0.441156
-0.0654048
-0.44792
0.293004
0.495896
-0.609983
-0.312394
0.331494
0.0324658
-0.461457
-0.929779
-0.186607
0.242934
-0.173332
-0.0809816
0.199319
0.0486274
-0.178571
0.0353741
0.220063
-0.0553888
-0.148562
0.17354
0.155646
-0.168711
-0.0367445
0.233045
-0.00578644
-0.189258
0.0919812
0.163152
-0.146485
-0.124955
0.186303
0.099449
-0.201271
-0.0121582
0.302095
0.0141712
-0.298289
0.123143
0.369136
-0.184886
-0.295378
0.361829
0.247039
-0.431056
-0.0577119
0.541451
-0.0886633
-0.504997
0.319438
0.462169
-0.466786
-0.281132
0.632134
0.0840487
-0.676002
0.197117
0.673876
-0.443373
-0.541151
0.685526
0.364083
-0.832859
-0.108683
0.916027
-0.144874
-0.891563
0.413446
0.792386
-0.619115
-0.597212
0.791299
0.362055
-0.838782
-0.0756449
0.828456
-0.178647
-0.697151
0.406714
0.53633
-0.56905
-0.332043
0.639836
0.109939
-0.666746
0.105644
0.595552
-0.271621
-0.437994
0.459785
0.292837
-0.514638
-0.149745
0.558259
0.0346159
-0.578956
0.0345349
0.590679
-0.158219
-0.598498
0.284593
0.526748
-0.429567
-0.467171
1.3724
1.18205
-0.0973176
-0.53928
-1.20629
-0.452361
0.268605
-0.0323263
-0.126821
0.0845616
0.0631599
-0.125131
0.0245121
0.117746
-0.111999
-0.0468042
0.174767
-0.0490308
-0.171745
0.15368
0.0953697
-0.26117
-0.0149132
0.250108
-0.181219
-0.29737
0.235938
0.115579
-0.439906
-0.0378386
0.472992
-0.174007
-0.499942
0.339097
0.412418
-0.508336
-0.275917
0.590266
0.0720787
-0.614364
0.148771
0.568813
-0.342204
-0.440715
0.514626
0.272241
-0.591829
-0.0400993
0.614676
-0.165891
-0.52188
0.368115
0.401849
-0.482048
-0.22665
0.561243
0.0674822
-0.560097
0.0804309
0.537747
-0.201028
-0.480396
0.28587
0.413247
-0.369225
-0.342191
0.422551
0.255997
-0.478681
-0.146011
0.504967
0.034308
-0.499559
0.100014
0.439531
-0.223028
-0.346308
0.341074
0.17499
-0.432428
0.0114716
0.496512
-0.173666
-0.363965
0.416543
0.330744
-0.41764
-0.0706529
0.455739
-0.0440754
-0.35913
0.228583
0.364157
-0.279795
-0.285609
0.399438
0.288815
-0.473019
-0.134003
0.32355
0.614188
0.358783
-0.053881
-0.661662
-1.08966
-0.471367
-0.0804717
0.112122
0.148832
-0.190834
-0.0681191
0.228744
-0.00835157
-0.219599
0.115663
0.202934
-0.175404
-0.0969851
0.253905
0.010122
-0.238214
0.105679
0.18321
-0.196664
-0.113071
0.193788
-0.0415382
-0.261215
0.0622439
0.19735
-0.14726
-0.179674
0.221724
0.195611
-0.251505
-0.168734
0.312528
0.121357
-0.362156
-0.0182898
0.390923
-0.123095
-0.371915
0.280671
0.304291
-0.399694
-0.173171
0.505899
0.019064
-0.532514
0.187029
0.526207
-0.388322
-0.424476
0.587337
0.276521
-0.73533
-0.0648901
0.81433
-0.168091
-0.8363
0.39924
0.751503
-0.624327
-0.632395
0.792462
0.403394
-0.905635
-0.163386
0.919135
-0.132636
-0.840879
0.376083
0.670844
-0.600128
-0.483744
0.660101
0.196422
-0.756116
-0.00671727
0.635619
-0.242861
-0.486323
0.482166
0.288011
-0.598244
-0.0971655
0.606983
-0.092633
-0.565389
0.134788
0.46899
-0.204479
-0.443947
0.278346
0.377948
-0.406563
-0.342805
0.677654
0.0381834
-0.0144864
0.49108
0.073711
-0.820237
-1.35031
-0.397256
0.0463053
-0.0520078
0.0760956
-0.0127361
-0.0287066
0.0365028
-0.0256445
-0.0249947
0.0842463
-0.0172421
-0.0961692
0.112976
0.10025
-0.166382
-0.0175568
0.216223
-0.0854571
-0.233055
0.172585
0.145948
-0.336322
-0.134229
0.324998
-0.108597
-0.444571
0.258887
0.431157
-0.44032
-0.328317
0.591864
0.168884
-0.645832
0.0470903
0.61166
-0.255435
-0.474999
0.461619
0.309842
-0.572279
-0.0604786
0.628178
-0.171724
-0.544909
0.421529
0.3929
-0.568409
-0.149152
0.663844
-0.0939093
-0.633675
0.324464
0.553066
-0.505791
-0.410252
0.604762
0.246188
-0.667965
-0.0983759
0.649708
-0.0401132
-0.627379
0.163246
0.572896
-0.237682
-0.480962
0.334107
0.366361
-0.368131
-0.216437
0.412313
0.0228046
-0.461142
0.108539
0.464255
-0.263802
-0.327377
0.51279
0.321039
-0.496941
0.00976975
0.52266
-0.217467
-0.376054
0.488964
0.316635
-0.506484
-0.173694
0.565734
0.134791
-0.55714
0.0654742
0.567427
-0.101612
-0.764366
1.09929
1.40174
-0.0356166
-0.916939
-1.82243
-0.560776
0.366786
-0.115137
-0.166986
0.165887
0.0909632
-0.21341
0.00997932
0.216303
-0.114741
-0.167297
0.220192
0.089266
-0.240743
0.0737726
0.251412
-0.182636
-0.147601
0.266971
0.00420824
-0.302915
0.100911
0.183071
-0.314333
-0.202965
0.317951
0.0764314
-0.360555
0.0203645
0.42279
-0.0315045
-0.402953
0.0783065
0.376769
-0.156952
-0.322886
0.25621
0.217764
-0.349529
-0.0765509
0.412472
-0.062064
-0.392419
0.219178
0.361151
-0.332598
-0.249363
0.462507
0.139393
-0.534685
0.0389252
0.583664
-0.206602
-0.58984
0.379716
0.519082
-0.554207
-0.45849
0.67821
0.288094
-0.794127
-0.129979
0.838142
-0.115269
-0.812103
0.349896
0.723773
-0.561303
-0.560973
0.636627
0.298084
-0.749889
-0.149981
0.594353
-0.118809
-0.451494
0.425782
0.283607
-0.602145
-0.0974497
0.647366
-0.17215
-0.57969
0.232624
0.339287
-0.288731
-0.167936
0.263225
0.0963175
-0.298393
-0.148092
0.418576
0.0953664
-0.41378
-0.222409
1.73732
1.49174
-0.0997678
-1.00558
-1.90161
-0.731197
0.17687
0.0304843
-0.00685838
-0.0398489
-0.00535365
0.0295606
0.0259087
-0.0495153
-0.0473813
0.0794069
0.0501021
-0.11483
0.00956567
0.186341
-0.0313682
-0.156695
0.128919
0.130618
-0.198757
-0.0890628
0.223157
-0.049986
-0.346194
0.0458694
0.225231
-0.327053
-0.257555
0.508889
0.194294
-0.619953
-0.0124783
0.672459
-0.159948
-0.575594
0.344165
0.405046
-0.456744
-0.143929
0.549745
-0.087
-0.511439
0.363791
0.40393
-0.550573
-0.161647
0.693316
-0.107471
-0.674425
0.410651
0.594118
-0.651288
-0.40202
0.8092
0.164453
-0.911717
0.0563839
0.869853
-0.283823
-0.822899
0.445076
0.69556
-0.54123
-0.552535
0.62505
0.374505
-0.619378
-0.153225
0.635028
-0.0823519
-0.636944
0.170263
0.527553
-0.325042
-0.348647
0.573625
0.395933
-0.517994
-0.0488459
0.535467
-0.277144
-0.447622
0.701764
0.385009
-0.727701
-0.147449
0.718533
0.020059
-0.606557
0.188471
0.650532
-0.249206
-0.60711
0.612629
0.152438
0.366119
0.780038
0.0396594
-1.16366
-1.88898
-0.612992
0.00734831
-0.0030761
0.159645
-0.117387
-0.092728
0.16697
-0.00662162
-0.185081
0.108644
0.12753
-0.205227
-0.0242655
0.268985
-0.0817563
-0.187444
0.268561
0.116593
-0.323759
0.0658109
0.317781
-0.243822
-0.258149
0.309782
-0.011236
-0.542058
0.0385877
0.513949
-0.174475
-0.458509
0.322294
0.484263
-0.312873
-0.40933
0.310353
0.282661
-0.340371
-0.127104
0.344638
-0.0660658
-0.300769
0.23616
0.222251
-0.317514
-0.0712102
0.383524
-0.0279261
-0.349002
0.191435
0.327494
-0.287846
-0.255343
0.393338
0.148187
-0.483036
-0.0988447
0.509412
-0.0413835
-0.570945
0.0961752
0.565313
-0.262413
-0.565299
0.417556
0.559632
-0.569342
-0.465062
0.63891
0.282415
-0.742461
-0.214405
0.525918
-0.00557024
-0.313602
0.390896
0.244419
-0.567929
-0.13195
0.632026
-0.174263
-0.649397
0.214478
0.271248
-0.415919
0.137823
0.419034
-0.317248
-0.288175
0.250173
0.189579
-0.155152
-0.184612
0.0281991
0.359268
-0.508965
1.05431
1.69059
0.0655622
-1.30895
-2.31434
-0.688197
0.255829
-0.108377
-0.0327094
0.0666019
0.0274835
-0.0776499
-0.0294339
0.0811967
0.0124065
-0.117094
0.00117219
0.125656
-0.041197
-0.104648
0.148581
0.138466
-0.120773
-0.0281111
0.156253
-0.0428015
-0.155288
0.0804798
0.0965065
-0.23023
-0.198996
0.151608
-0.0437592
-0.443344
0.104338
0.637795
-0.173801
-0.635439
0.350042
0.568118
-0.421463
-0.342239
0.467277
0.107423
-0.415103
0.194484
0.369927
-0.391651
-0.179196
0.599481
-0.0364156
-0.631685
0.344687
0.605872
-0.591178
-0.410629
0.801297
0.164366
-0.947355
0.0946624
0.924305
-0.397427
-0.904603
0.606458
0.749038
-0.747901
-0.59607
0.826618
0.357247
-0.840824
-0.106847
0.883636
-0.162088
-0.932029
0.170493
0.699658
-0.336897
-0.390778
0.663655
0.555098
-0.462477
-0.211593
0.406099
-0.237212
-0.471142
0.770672
0.579311
-0.82191
-0.306469
0.814411
-0.087829
-0.611422
0.350344
0.626647
-0.260384
-0.555814
0.514237
0.525829
-0.526865
-0.856657
2.28548
2.34669
-0.112092
-1.39052
-2.64766
-0.933003
0.353907
-0.022866
-0.122402
0.0510438
0.0800613
-0.117272
-0.00574443
0.122994
-0.0994924
-0.099695
0.171396
-0.016125
-0.224919
0.154304
0.228725
-0.220993
-0.0218733
0.370902
-0.0956649
-0.320401
0.286168
0.207343
-0.426071
-0.0818566
0.347741
-0.350112
-0.57151
0.430691
0.561875
-0.496759
-0.405499
0.622938
0.394302
-0.547854
-0.310956
0.422289
0.112526
-0.334648
0.0752404
0.168421
-0.244901
0.0318506
0.323134
-0.185988
-0.237831
0.380266
0.168339
-0.416622
0.0225713
0.484553
-0.191001
-0.478368
0.289133
0.376376
-0.466949
-0.346659
0.459976
0.213608
-0.568945
-0.158827
0.623436
0.179826
-0.662624
-0.142935
0.664607
0.0393571
-0.799516
-0.14687
0.487568
-0.0107821
-0.106672
0.573544
0.219511
-0.596587
-0.164625
0.614911
-0.11183
-0.750531
-0.0427566
0.157064
-0.454051
0.33524
0.778308
-0.596884
-0.61936
0.778279
0.152313
-0.599091
0.0962376
0.285322
-0.0783999
-0.317494
0.191339
-0.24273
1.76858
2.04632
-0.0273887
-1.50979
-2.66796
-0.959705
0.160718
0.0153699
0.0591005
-0.0757269
-0.0407781
0.0735974
0.0207251
-0.101604
-0.00411133
0.100578
-0.0502989
-0.127378
0.0766437
0.0816476
-0.116695
0.0362806
0.24288
-0.00637104
-0.102921
0.130352
0.0232646
-0.193629
0.0438413
0.17523
-0.172185
-0.313058
0.0769535
0.123268
-0.457952
-0.410087
0.584843
0.60717
-0.57026
-0.483539
0.63706
0.360048
-0.50652
-0.110406
0.388009
-0.067753
-0.175784
0.335767
0.0529699
-0.409878
0.222112
0.49894
-0.404659
-0.35152
0.62246
0.173765
-0.759415
0.0624058
0.745772
-0.377859
-0.770884
0.587285
0.61117
-0.774287
-0.494919
0.834505
0.210899
-0.871591
0.041669
0.951584
-0.328557
-1.19368
0.0709198
0.81573
-0.297345
-0.335338
0.919676
0.745962
-0.460479
-0.389628
0.202283
-0.135221
-0.338584
0.782182
0.795651
-0.679752
-0.626215
0.587222
-0.123547
-0.699555
0.565647
0.701254
-0.413928
-0.219151
0.366707
0.348781
-0.347162
-0.469197
0.921738
-0.287685
0.785983
1.7688
0.135531
-1.68395
-2.85768
-0.850468
0.214019
-0.115593
0.0798258
0.00388969
-0.0707944
0.0443207
0.0140004
-0.0898239
0.0624139
0.0517406
-0.153114
0.00513543
0.163422
-0.165768
-0.163923
0.303115
0.13944
-0.241852
0.158134
0.311126
-0.241229
-0.163416
0.35807
-0.0121921
-0.418006
0.0907325
0.081694
-0.678009
-0.26632
0.897579
0.415819
-0.825197
-0.250392
0.837385
0.234586
-0.679498
-0.210761
0.385013
-0.00703033
-0.142444
0.101717
-0.20005
-0.130773
0.480951
0.0732992
-0.562011
0.184895
0.671392
-0.351735
-0.567038
0.546503
0.379022
-0.783729
-0.250877
0.761882
-0.0638886
-0.882136
0.242031
0.901487
-0.245342
-0.798233
0.316521
0.682901
-0.392272
-0.892409
-0.0368377
0.403348
-0.0628913
0.204744
1.00695
0.168223
-0.903474
-0.150381
0.783238
-0.0110017
-0.908118
-0.536765
-0.110113
-0.351031
0.561099
1.15753
-0.496985
-1.22155
0.812837
0.61866
-1.05513
0.185064
0.808537
-0.620653
-0.406601
0.457256
0.218196
-0.265495
-1.06327
2.79399
3.28285
-0.00433289
-1.81415
-3.28953
-1.04634
0.369786
-0.102179
-0.0459366
0.0509704
0.0244424
-0.0628156
-0.0209316
0.0614617
-0.00567599
-0.0957605
0.0420415
0.0726298
-0.126824
-0.0802352
0.125681
-0.0354715
-0.104217
0.286776
0.244662
-0.195947
0.00810362
0.233673
-0.222654
-0.269727
0.344973
0.159488
-0.52616
-0.220017
0.488582
-0.106233
-1.06986
-0.257662
1.13199
0.458998
-0.868666
-0.240975
0.784586
0.220731
-0.447356
-0.0829384
0.252894
0.0499415
0.0732236
0.182161
-0.1347
-0.0601366
0.402411
0.0570379
-0.464466
0.103079
0.421482
-0.353556
-0.468236
0.465084
0.281831
-0.662694
-0.266253
0.603045
-0.088551
-0.654789
0.346392
0.755787
-0.676075
-1.34156
-0.113559
0.766159
-6.32238e-05
0.0968592
1.22406
0.703842
-0.728752
-0.466042
0.186809
-0.0852423
-0.0345215
1.01226
1.0744
-0.33597
-0.943183
-0.117267
-0.276374
-0.766594
0.349665
1.04914
-0.362929
-0.0948599
0.545776
-0.28664
-0.0536421
0.120662
0.24598
0.347478
-0.362059
-1.24057
3.31437
3.67468
-0.149807
-1.90837
-3.46028
-1.23199
0.297191
0.0269522
-0.0254711
-0.0633575
0.0531858
-0.00476231
-0.0428032
0.0413529
-0.0306972
-0.0584439
0.105554
-0.0202194
-0.165928
0.083836
0.0820252
-0.276274
-0.0448716
0.399533
0.102789
-0.145347
0.184854
0.152674
-0.129406
0.00875879
0.135212
-0.167427
-0.182801
0.01755
-0.52486
-0.777852
0.478618
1.38387
0.0690948
-1.1345
-0.0827294
0.959605
0.0887497
-0.728089
-0.181947
0.243871
0.00448653
0.114837
-0.137844
-0.5335
0.273749
0.771839
-0.392199
-0.707585
0.609859
0.520219
-0.841978
-0.287308
0.882428
-0.129169
-1.01536
0.455291
1.07351
-0.511879
-0.881312
0.654134
0.604332
-0.912105
-1.09778
0.0622207
0.453158
0.199125
0.713551
1.22691
-0.217949
-1.45064
-0.0771803
1.19858
-0.154424
-1.33995
-0.956138
-0.405587
-0.127605
1.00492
1.69558
0.113311
-1.65982
-0.166013
0.960527
-0.597629
-0.358772
1.24933
-1.02281
-0.867658
1.34446
0.165459
-0.631272
-0.551263
0.786397
-0.557967
1.96497
3.28447
0.130111
-2.05196
-3.58434
-1.2193
0.265798
-0.0321022
0.0283439
-0.0309359
-0.00162667
0.00418885
0.00446706
-0.0281121
-0.0149897
0.0419496
-0.0277313
-0.0693873
0.0913622
0.0109557
-0.20848
-0.0200738
0.120264
-0.159545
0.0722688
0.614317
0.105726
-0.432637
0.168814
0.297096
-0.578102
-0.326033
0.789947
0.0568605
-0.898023
0.233229
1.0138
-0.664824
-1.97007
-0.183293
1.66105
0.371597
-0.971912
-0.0873852
0.861031
0.340027
-0.442256
-0.373708
0.306931
0.549825
0.207156
-0.215384
-0.0732947
0.392755
0.106214
-0.46609
-0.0792374
0.468731
-0.154383
-0.657113
-0.0262791
0.283342
-0.437913
-0.299402
0.663726
0.302117
-1.23845
-1.44103
-0.0257214
1.05141
0.80438
0.931226
1.19386
0.133927
-1.02085
-0.359422
0.305788
-0.208283
0.292348
1.89035
1.39181
-0.290082
-1.19804
-1.12687
-0.506067
-0.837622
-0.562708
1.18549
0.803238
-0.0768476
0.203723
-0.568267
-0.511099
1.59496
-0.38909
-0.635675
0.773328
-0.523929
0.65903
-0.834227
2.09615
3.46178
0.169513
-2.21989
-3.93769
-1.21092
0.427838
-0.167582
-0.00634083
0.0913503
-0.0514512
-0.0483812
0.0686087
-0.0444314
-0.0191455
0.0594982
-0.0813678
-0.0271409
0.139324
-0.0746782
-0.150861
0.0904209
-0.0789034
-0.323812
0.126989
0.524305
0.207609
-0.140392
-0.0470866
0.191459
0.332
-0.132744
-0.43539
0.0214998
0.220598
-0.532475
-1.48523
-0.63119
1.81605
2.06983
-0.502843
-1.55438
0.124867
1.12574
-0.0414378
-0.741544
-0.151934
0.172786
0.156733
0.221929
-0.482414
-0.577891
0.467279
0.324482
-0.890044
-0.33515
0.886343
0.00647677
-0.912136
0.439001
1.00138
-0.59815
-0.943852
0.518885
0.195886
-1.44027
-1.30055
0.474355
1.08424
0.722724
0.931095
0.715794
-1.07945
-1.71383
0.105526
1.23213
-0.686256
-2.03321
-0.886229
-0.257779
-0.276193
1.95563
2.79452
1.34739
-1.49614
-2.53165
0.541806
1.16578
-0.450269
0.0665122
-1.30767
-1.50837
2.08051
1.2765
-2.10476
0.791318
0.51057
-0.429117
-0.734018
-2.22573
5.86442
5.56655
-0.247499
-2.3503
-4.23852
-1.37019
0.39916
-0.107412
0.0290755
0.00132015
-0.0417793
0.03478
0.0106391
-0.0558117
0.0318189
-0.016098
-0.0271311
0.050807
-0.0542701
-0.0358731
0.150423
-0.0818672
-0.335818
0.00295738
0.0986421
-0.171493
0.515043
0.913463
-0.353303
-0.675363
0.436884
0.307597
-1.15153
-0.403057
1.46407
-0.0352249
-0.994765
1.26215
1.43853
-1.54365
-3.13838
-0.630502
1.80621
0.520959
-0.909704
-0.237941
1.07228
0.835218
-0.599433
-0.864101
0.632128
1.12342
-0.244476
-1.01963
0.244844
0.94285
-0.247587
-0.725996
0.193066
0.0733286
-0.863816
-0.0564027
1.02384
-0.0274438
-1.66409
-1.04798
1.10652
2.18761
1.68885
1.34305
0.590673
-0.769064
-0.984283
0.153945
0.279922
-0.279728
0.826637
2.6799
1.34563
-1.57785
-1.72187
-1.22151
-1.08052
-0.882974
-2.28769
1.03689
3.62161
0.593266
-0.725072
-1.43203
-0.585648
2.02705
0.326709
-2.75019
1.47415
2.27636
-2.0437
0.491121
0.0964828
-2.26467
5.64014
5.43788
-0.508354
-2.4665
-4.32661
-1.48297
0.283726
0.0123856
0.0507346
-0.120926
0.0485161
0.0648564
-0.103818
0.029912
0.0654919
-0.127422
0.0485112
0.0697368
-0.148346
0.0420298
0.165922
-0.116466
-0.146249
-0.0463544
-0.314291
-0.248819
0.429704
0.87809
0.264999
-0.65232
-0.173615
0.727579
0.855066
-0.66682
-1.25472
0.546865
0.929183
-1.59451
-3.36958
-0.709635
3.97894
3.52753
-1.13551
-2.36531
0.494164
1.6469
-0.0156842
-0.741829
0.214587
0.912895
0.660421
-0.471682
-1.65713
-0.824413
0.549157
0.0808461
-0.721168
0.268114
0.544441
-0.943318
-1.25422
-0.0468134
-0.309067
-1.40053
-0.653755
1.4903
1.69417
0.197491
-0.0974686
-0.48167
-1.86138
-1.29497
0.597413
0.802036
-1.25524
-1.92543
-0.484431
0.294911
-0.13266
2.92779
4.94117
1.95553
-1.43844
-4.29589
-0.716718
4.08232
-0.438029
-2.11247
-2.29911
-1.84938
2.54
1.86242
-3.04988
-0.480318
3.43715
-2.22608
-0.572108
-0.0838537
0.455408
-0.0393466
3.69578
5.79114
-0.469021
-2.60899
-4.64643
-1.5959
0.436239
-0.0402541
-0.0594816
0.00159677
0.0870733
-0.0853378
-0.0348605
0.110876
-0.0513281
-0.0623534
0.08392
-0.0790151
-0.0095217
0.0990714
-0.107088
0.0316069
0.217611
-0.282146
-0.58495
0.0413985
0.209365
0.0711973
1.28397
0.763938
-1.2541
-0.481992
0.57985
0.016458
-1.51553
-0.659925
1.71478
0.398256
-0.0129469
2.80508
1.91101
-2.50386
-4.50488
-1.64973
0.985364
0.465681
-1.06899
-0.644819
1.58522
1.85643
-0.670976
-1.9479
-0.300094
0.531316
-0.344613
-0.535701
0.619449
0.379672
-0.733168
0.395975
1.84079
0.315956
-1.31369
0.249413
2.73718
2.91282
0.912305
0.421758
-0.216675
-1.25866
-0.525298
0.815237
0.111808
-0.577348
1.23866
2.60354
0.289714
-3.45423
-3.04112
-0.438057
-1.89788
-2.7647
-1.46349
2.10197
6.95855
2.39211
-2.68186
-1.18807
-1.17411
3.37088
0.825115
-4.63124
-0.625483
5.45396
-2.62077
-4.21911
3.34837
-1.9931
1.50558
-0.100678
4.57638
7.45475
-0.54089
-2.76653
-5.0229
-1.58541
0.589445
-0.201158
-0.0513722
0.128794
-0.0533815
-0.0875105
0.143937
-0.0473262
-0.117478
0.162924
-0.0238265
-0.187709
0.173319
0.0013528
-0.190793
0.204983
0.170447
-0.189717
-0.289529
-0.374335
-0.434415
0.0801166
0.976943
1.48353
-0.474678
-1.58944
0.685425
1.21309
1.2184
-0.388433
-2.48998
0.525438
2.68372
-2.97688
-7.38075
-2.18828
6.14672
6.13601
-0.846262
-3.4273
0.505033
2.55217
0.817262
-0.427277
0.648037
1.49151
0.507365
-0.947713
-0.557013
0.718122
0.193795
-1.54891
-1.67674
-0.339257
-0.586645
-0.798948
0.410807
1.98764
0.354654
-2.20696
-0.884945
-0.369287
-1.22046
0.125722
1.21132
0.345303
-1.22568
-0.523375
0.71059
1.16045
1.48804
3.68705
5.44894
1.41114
-3.28384
-3.52975
-0.861748
2.61077
-0.116131
-4.03529
-2.04072
-1.66651
1.91829
4.59593
-3.8134
-1.97846
3.92895
0.807758
-4.75388
3.88928
-3.41038
-3.2143
3.68355
-2.68451
9.12866
6.95013
0.0379282
-2.90881
-5.11603
-1.58797
0.377967
-0.180339
0.140626
-0.00943984
-0.140615
0.100865
0.0758517
-0.169124
0.0648652
0.103512
-0.144593
0.0378496
0.0787234
-0.205027
0.0872543
0.160489
-0.151412
0.203067
0.12861
-0.835722
-0.792605
0.47871
0.584334
0.461323
1.92502
-0.246585
-1.76138
0.27278
-0.323577
-0.465955
-0.64854
-1.64211
-0.127681
1.37813
3.03989
5.81029
3.64354
-3.45521
-5.71575
-1.56365
0.36835
-0.178939
-1.20982
-0.0848565
1.42955
-0.0371471
-2.81135
-2.00018
1.30221
1.44081
-0.246637
0.469305
1.70308
-0.0615549
-1.72184
-0.0287024
2.1185
0.542036
-1.39616
-0.0352925
-0.382575
-1.91816
-1.01129
0.218574
-0.584464
-1.08436
0.77627
1.39001
-1.7436
-5.6058
-4.03976
0.593368
-0.937422
-2.81087
1.87305
5.69408
5.19322
2.86085
-0.978628
-1.04875
0.657655
0.756417
1.56317
-4.75424
-3.73474
4.83099
0.419376
-4.8401
2.35307
5.16703
-8.77317
1.56836
1.92468
-4.28843
7.13924
2.903
0.0603418
-3.02225
-5.28235
-1.83303
0.327346
0.0334561
0.0731234
-0.168558
0.0633007
0.0954467
-0.172817
0.0491824
0.186654
-0.228227
-0.00558654
0.256647
-0.206474
-0.126747
0.268673
-0.186064
-0.0958085
0.553232
0.0927639
-0.615063
-0.740443
-0.426968
-0.0429642
0.554929
1.47205
1.61365
-2.02759
-1.75135
2.02405
0.94521
1.94162
1.66495
-3.10787
0.0934056
5.21123
-3.39626
-13.1985
-7.78188
4.73587
7.56195
1.1287
-3.38338
-0.0352397
3.07111
-0.477064
-3.88876
-0.561266
3.70582
3.8101
0.540066
-0.82286
-0.158054
-0.262868
-0.334459
1.40699
1.54133
-1.3916
-0.84442
2.79798
2.74771
0.651269
1.73479
1.62055
0.42163
0.0104421
1.56513
2.02266
1.83504
3.14356
3.68337
2.88796
-1.18514
-4.88459
-2.54137
-1.71364
-3.01395
-2.79993
-1.39131
-1.72951
0.506166
3.18281
3.46208
2.39364
-4.24966
2.57435
3.16713
-4.10214
-1.27979
4.04153
-6.72425
-1.71226
1.49667
-1.43436
-1.2969
10.6266
13.9036
-2.89894
-3.14636
-5.76989
-2.0188
0.668885
-0.0297939
-0.188753
-0.00535201
0.189366
-0.116541
-0.116176
0.189219
-0.0368762
-0.156711
0.205976
-0.0442642
-0.154725
0.200418
-0.0597126
-0.31209
0.247943
0.26826
-0.0582826
0.354768
-0.705016
-1.5836
0.0947333
1.40484
0.667133
0.197515
1.67503
-0.0801051
-1.03636
-0.201934
-1.6633
-1.65096
0.0144503
-2.13179
-4.56924
-1.77121
6.15934
12.2351
7.78346
-3.45051
-5.44535
2.02659
3.8745
0.0287316
-3.50213
-0.908889
2.55235
1.68186
-1.05684
-0.494263
0.0317996
-3.10165
-4.58883
-1.67577
0.316809
-1.87802
-1.49321
0.180984
-2.97253
-4.7509
-2.26863
-0.569273
-1.26969
-1.53603
-0.750621
-0.733038
-3.17818
-5.21532
-2.89047
2.53851
3.25808
1.9765
5.73264
7.89899
1.62201
-1.13417
-0.085256
-1.45991
-3.87915
-1.34254
-1.64993
-0.273177
-3.10402
0.210777
5.4229
-6.99496
-2.26354
2.66371
-3.6054
-3.50078
5.24693
-2.61841
3.96536
0.43142
21.6885
26.1731
-6.51156
-3.30623
-5.92006
-1.75433
0.636508
-0.342142
0.0144053
0.202413
-0.122998
-0.13723
0.21199
-0.0453416
-0.227221
0.264764
0.0921309
-0.371216
0.239419
0.171432
-0.37225
0.0800471
0.194143
-0.388495
0.297675
1.11977
-0.574404
-1.92145
-0.274397
0.547867
-0.200958
0.706572
1.40699
1.07464
-1.94886
-1.78772
1.81279
1.89212
1.94251
3.25799
1.1835
3.27909
8.83577
1.18809
-15.5935
-15.611
-1.15334
4.70133
1.1275
-3.16563
-2.30398
0.547896
-2.02284
-6.45062
-3.35394
1.34652
2.39198
1.77635
3.92492
3.38996
0.839163
3.38189
4.95399
1.64195
0.242239
1.85699
1.35062
0.0324052
0.518253
2.06905
1.76543
0.666612
2.02618
0.775078
-3.08471
-4.46161
-4.57117
-1.9325
-3.67014
-4.8594
-0.341827
2.41682
4.19012
3.26216
3.17777
5.27581
1.99265
3.38786
-4.03421
1.48256
-1.99264
-5.9479
0.146798
-8.90674
-4.538
10.171
-13.6168
-0.207274
8.11968
-3.11727
18.3709
8.44772
-2.53693
-3.43344
-5.91136
-1.86109
0.279949
-0.165432
0.290721
-0.0684602
-0.247349
0.132416
0.15051
-0.209537
-0.00204451
0.178284
-0.18141
0.0181305
0.271076
-0.296296
0.00563082
0.273041
-0.304148
-0.313743
0.48846
0.573696
-0.0364324
-0.275001
-1.96724
-0.792036
1.52252
1.25327
0.654541
-0.986847
1.39127
3.19618
-0.332652
-0.921694
-0.793805
-3.9294
-1.87327
-0.774756
-9.4027
-12.8537
-0.686922
11.7881
10.7869
-1.78266
-6.26958
1.38251
2.54519
-0.805172
-0.174452
2.7317
4.69426
1.39649
-2.60152
0.650914
3.6505
0.0897945
-1.61885
-2.68081
-4.43258
-2.11002
1.89779
3.45941
1.02001
-0.294132
-0.124499
0.177711
-0.429572
-0.106108
0.93814
4.83529
8.51824
7.52744
4.03146
1.18154
-3.77773
-4.78389
-1.61988
-2.02572
-7.687
-7.56724
-0.239252
-1.12079
-1.13263
0.286207
-2.92685
3.50296
0.166529
3.43856
-11.8789
-10.1166
3.4278
11.7454
6.53679
5.31858
-15.1845
-5.85695
12.1714
-9.62502
0.367846
-3.50551
-6.31212
-2.30161
0.552499
0.135676
-0.0996198
-0.247168
0.23949
0.136727
-0.325848
0.00673323
0.296198
-0.24899
-0.137839
0.449145
-0.149503
-0.342134
0.507844
-0.147062
-0.344508
0.282749
-0.0860992
-0.27844
0.834062
1.37291
-2.18655
-2.4686
1.9397
-0.446522
-1.59128
2.02263
1.25654
-0.365488
-1.35667
-2.36353
1.45246
3.32963
0.487943
1.43701
3.84048
9.69157
17.4445
10.8199
-7.20519
-9.86186
1.26215
2.65214
-3.96625
-2.82362
4.58108
5.72467
1.25724
-0.740857
-2.89972
-3.86205
-4.00156
-4.27609
-3.54183
-2.07416
-2.06694
-3.2324
-3.97415
-4.6537
-2.17698
-0.040069
-1.70257
-3.01818
-1.51069
-2.35441
-6.59721
-4.99293
-3.00885
-2.75669
-2.09006
2.62712
9.01305
7.73183
6.21554
4.69599
-0.827067
1.0506
1.39109
-5.82888
-3.69396
-5.03513
1.61058
1.80992
-3.06173
-1.00704
-0.744503
10.6383
-7.21457
-8.55897
22.009
-4.87838
-0.645586
-5.20687
38.1526
35.0536
-8.29396
-3.61884
-6.6365
-2.14594
0.84547
-0.220895
-0.218634
0.158257
0.193478
-0.234322
-0.135296
0.238584
0.00406176
-0.214214
0.136266
0.0307714
-0.218732
0.3124
0.14366
-0.530623
0.291662
0.189576
-0.562474
-0.0756214
0.878707
0.503228
-0.465861
-0.974003
-1.74623
-0.597969
0.847436
3.36493
1.3773
-3.74882
0.911988
6.17481
2.85619
0.451206
1.2698
-0.60112
-0.575702
1.64042
-5.08365
-18.5312
-17.1516
-4.65934
5.78112
1.38935
-6.44441
-2.9618
1.46447
-4.65993
-7.28912
1.12853
4.42776
1.68756
0.480241
-0.304727
5.88743
11.2814
8.13292
5.34694
2.80346
1.71682
2.70891
2.73835
3.83658
4.67354
3.72648
3.58647
5.71515
4.26244
-4.35756
-7.00635
-5.39855
-4.571
-3.79722
-5.40226
-6.91792
1.44968
7.57038
5.06715
-0.450069
2.61107
7.41752
-2.13661
-1.92092
0.311349
11.9266
9.29398
0.264611
-16.0853
-14.926
3.15234
-2.76196
-6.81991
18.6803
-12.1203
60.4584
57.1003
-18.288
-3.75588
-6.48806
-1.84816
0.427268
-0.413649
0.305405
0.165281
-0.378724
-0.0529095
0.442981
-0.107614
-0.45939
0.23409
0.266868
-0.399769
0.0671814
0.456732
-0.375501
-0.0879313
0.582094
-0.584591
-0.121465
0.326096
-0.165832
0.0964802
0.930081
1.57274
-3.03496
-1.8
2.6144
-1.21101
-2.4701
2.02836