# vtk DataFile Version 3.0
fluid_state
ASCII
DATASET RECTILINEAR_GRID
DIMENSIONS 100 100 1
X_COORDINATES 100 double
0 1 2 3 4 5 6 7 8 9 10 11 12 13 14 15 16 17 18 19 20 21 22 23 24 25 26 27 28 29 30 31 32 33 34 35 36 37 38 39 40 41 42 43 44 45 46 47 48 49 50 51 52 53 54 55 56 57 58 59 60 61 62 63 64 65 66 67 68 69 70 71 72 73 74 75 76 77 78 79 80 81 82 83 84 85 86 87 88 89 90 91 92 93 94 95 96 97 98 99 
Y_COORDINATES 100 double
0 1 2 3 4 5 6 7 8 9 10 11 12 13 14 15 16 17 18 19 20 21 22 23 24 25 26 27 28 29 30 31 32 33 34 35 36 37 38 39 40 41 42 43 44 45 46 47 48 49 50 51 52 53 54 55 56 57 58 59 60 61 62 63 64 65 66 67 68 69 70 71 72 73 74 75 76 77 78 79 80 81 82 83 84 85 86 87 88 89 90 91 92 93 94 95 96 97 98 99 
Z_COORDINATES 1 double
0
POINT_DATA 10000
SCALARS vorticity float 1
LOOKUP_TABLE default
0.00722797
0.0163166
-0.0358641
-0.123065
-0.217184
-0.29039
-0.347981
-0.427649
-0.519808
-0.581156
-0.638728
-0.731863
-0.815691
-0.862535
-0.931718
-1.03029
-1.09251
-1.13468
-1.21859
-1.30487
-1.34432
-1.39294
-1.47972
-1.53898
-1.56467
-1.62191
-1.69482
-1.72536
-1.74772
-1.80554
-1.84987
-1.85504
-1.8762
-1.91805
-1.9261
-1.91411
-1.92958
-1.94146
-1.91557
-1.8928
-1.89118
-1.86547
-1.81533
-1.7836
-1.75656
-1.69827
-1.63383
-1.5884
-1.53268
-1.45132
-1.37702
-1.31639
-1.23927
-1.14579
-1.06471
-0.990778
-0.898974
-0.79878
-0.714593
-0.633754
-0.534986
-0.435229
-0.354207
-0.271149
-0.170961
-0.0786029
-0.00658675
0.0726045
0.165515
0.242441
0.301038
0.370631
0.448044
0.503657
0.544815
0.598645
0.652519
0.682578
0.706831
0.74494
0.77269
0.775456
0.78354
0.80371
0.798132
0.769282
0.760862
0.758576
0.715118
0.659255
0.636594
0.604983
0.526527
0.457964
0.426219
0.360975
0.254926
0.199596
0.175761
0.0132492
-0.0162953
-0.0955046
-0.142951
-0.250754
-0.392558
-0.505037
-0.672337
-0.822499
-0.914056
-1.04939
-1.23859
-1.34233
-1.4339
-1.61625
-1.77373
-1.84074
-1.97635
-2.16438
-2.26203
-2.33798
-2.50628
-2.64606
-2.70839
-2.81594
-2.96992
-3.04992
-3.11455
-3.23722
-3.33752
-3.37827
-3.45812
-3.55544
-3.59254
-3.61744
-3.6928
-3.72986
-3.71185
-3.72821
-3.76589
-3.72899
-3.67657
-3.6756
-3.65119
-3.55049
-3.47734
-3.4381
-3.34702
-3.20774
-3.11044
-3.02433
-2.88478
-2.71974
-2.59299
-2.4689
-2.30199
-2.1118
-1.96709
-1.82838
-1.63617
-1.43127
-1.29273
-1.14702
-0.929029
-0.733411
-0.622931
-0.461832
-0.231329
-0.07827
0.00533591
0.1866
0.394911
0.482811
0.558221
0.745
0.887838
0.921031
1.00816
1.16535
1.22291
1.22823
1.32061
1.41763
1.40161
1.38464
1.44921
1.47644
1.39701
1.33293
1.34882
1.32273
1.18098
1.06334
1.05617
0.985028
0.769202
0.625224
0.656763
0.553126
0.220104
-0.075497
-0.0834889
-0.239679
-0.206581
-0.107785
-0.0495664
-0.172001
-0.334476
-0.248758
-0.201226
-0.422469
-0.514825
-0.343956
-0.419933
-0.682012
-0.620221
-0.475637
-0.703234
-0.873412
-0.695641
-0.693038
-0.97425
-0.981043
-0.812781
-0.954184
-1.15913
-1.04818
-0.983223
-1.18289
-1.2574
-1.12518
-1.17377
-1.33513
-1.30318
-1.22385
-1.3264
-1.40125
-1.32928
-1.31514
-1.40046
-1.39574
-1.33481
-1.34583
-1.37758
-1.33591
-1.29484
-1.28526
-1.27934
-1.23947
-1.17884
-1.13933
-1.14058
-1.08541
-0.973711
-0.946852
-0.974324
-0.848943
-0.715079
-0.76118
-0.755389
-0.541923
-0.470428
-0.575386
-0.460739
-0.225779
-0.27708
-0.350719
-0.129654
0.0229364
-0.108321
-0.0805999
0.160833
0.191573
0.0748361
0.189934
0.362986
0.31377
0.262237
0.406048
0.493183
0.412862
0.405322
0.543892
0.573206
0.452096
0.453042
0.598788
0.573192
0.39317
0.428268
0.585259
0.461768
0.26555
0.393126
0.483155
0.228837
0.154566
0.395664
0.234814
-0.0955412
-0.107951
-0.167524
-0.357005
-0.181718
0.05887
0.0794912
-0.00108778
0.0249658
0.133271
0.0889619
0.0186725
0.126727
0.18248
0.0737986
0.0902204
0.22116
0.17681
0.0895613
0.19335
0.261159
0.15842
0.154727
0.276054
0.256766
0.176046
0.245143
0.316541
0.254482
0.239727
0.323235
0.327824
0.274435
0.314966
0.36263
0.321381
0.313068
0.370056
0.359702
0.317923
0.357807
0.38505
0.329669
0.328019
0.385069
0.357259
0.296337
0.339473
0.374303
0.301233
0.269588
0.335217
0.32303
0.234371
0.244324
0.300542
0.239498
0.169676
0.216498
0.236886
0.147993
0.119493
0.178419
0.15458
0.0665835
0.076138
0.125607
0.0750681
-0.0015389
0.0303996
0.0724276
0.00228597
-0.0633034
-0.00663851
0.024167
-0.0667734
-0.0985669
-0.017378
-0.0287298
-0.122288
-0.0894787
-0.0108369
-0.0834646
-0.147789
-0.0526569
-0.0186138
-0.135349
-0.151218
-0.0342032
-0.0435913
-0.152722
-0.127645
-0.0266957
-0.0496845
-0.125085
-0.0932826
-0.026996
-0.0318455
-0.0919494
-0.119009
-0.0614816
-0.0103723
-0.258791
-0.443217
-0.0613921
0.0726976
-0.130026
-0.0136029
0.10473
-0.0620397
-0.137274
0.0609742
0.0702285
-0.156414
-0.0931187
0.113475
-0.0342935
-0.204713
-0.00292319
0.0868627
-0.1546
-0.170079
0.0592546
-0.0103021
-0.214518
-0.0919698
0.0546709
-0.107821
-0.193939
-0.0243069
0.00166786
-0.155151
-0.131203
-0.00416744
-0.0610401
-0.151533
-0.0801105
-0.0266338
-0.0953739
-0.118285
-0.0619333
-0.0550802
-0.0919838
-0.0925185
-0.0698379
-0.0621921
-0.0717756
-0.0895364
-0.0714034
-0.039302
-0.0697627
-0.103245
-0.0469152
-0.018577
-0.100907
-0.0999087
0.00763831
-0.0358728
-0.142854
-0.0458838
0.0448354
-0.0970815
-0.138266
0.0416288
0.0269297
-0.152044
-0.0679832
0.0940129
-0.0359493
-0.148165
0.018554
0.0829248
-0.0794669
-0.0846504
0.0672624
0.0380218
-0.0746021
-0.00997628
0.0833309
0.0167406
-0.0423035
0.0465656
0.105349
0.0146968
-0.0360487
0.0748628
0.124094
-0.0113934
-0.0535559
0.100826
0.11269
-0.0611766
-0.0329583
0.133871
0.042351
-0.0895381
0.0462553
0.100912
-0.0813309
-0.00661339
0.136031
0.0658208
-0.33641
-0.563465
-0.166022
0.0215387
-0.0194813
0.0496904
-0.0180084
-0.0397025
0.05636
0.0398247
-0.0595095
0.00279443
0.092042
-0.0147021
-0.0669504
0.0692263
0.0727289
-0.0713839
-0.0196379
0.108208
0.00650184
-0.0842367
0.0464638
0.0884805
-0.0478231
-0.0389267
0.0901931
0.0447517
-0.0544545
0.0235808
0.0943641
0.000374509
-0.0298577
0.0707226
0.0658934
-0.0260267
0.0080013
0.0822661
0.0201217
-0.0286647
0.0478907
0.0655881
-0.015225
-0.00650585
0.0703327
0.0297873
-0.0352717
0.0214675
0.0677241
-0.000689798
-0.0345425
0.0414274
0.0535354
-0.0294468
-0.0261568
0.0526796
0.0334574
-0.0485385
-0.0100601
0.0658527
0.00475048
-0.0633214
0.0139889
0.0706611
-0.0290608
-0.0712886
0.0467898
0.0630168
-0.0713928
-0.0611132
0.0765573
0.0306832
-0.0962373
-0.0155409
0.0839534
-0.0234947
-0.0788972
0.0526555
0.0670848
-0.061092
-0.0198009
0.109233
0.0306031
-0.0878407
0.0115282
0.111503
-0.00738204
-0.0928355
0.0310224
0.0992845
-0.0305802
-0.0817233
0.0446879
0.0723977
-0.0590782
-0.0651395
0.0677126
0.200453
0.244252
0.130374
-0.401831
-0.764058
-0.354218
0.039451
0.0968242
-0.0106458
-0.120239
0.0537848
0.101358
-0.100864
-0.0760909
0.127169
0.0267578
-0.149021
0.0191588
0.132714
-0.081989
-0.120806
0.102677
0.0587639
-0.144576
-0.0337926
0.119294
-0.0376451
-0.132099
0.0401778
0.0725648
-0.0878156
-0.061403
0.0737323
0.0164965
-0.0765606
0.00324247
0.0529732
-0.0250974
-0.0343314
0.0248693
0.0162982
-0.0143878
0.00275968
0.00551113
-0.000316098
0.0186286
-0.000206847
-0.0210028
0.0206118
0.0334992
-0.029746
-0.0224
0.0522138
0.00448426
-0.0632418
0.0195383
0.0592897
-0.0542313
-0.0520417
0.0770782
0.0132258
-0.104528
0.0147387
0.0911597
-0.0664161
-0.0911274
0.0797029
0.0425352
-0.115727
-0.0312765
0.0900599
-0.0178647
-0.0940449
0.0158847
0.0476107
-0.0469826
-0.0437064
0.0300072
0.0173502
-0.0333844
-0.00147036
0.0608309
0.0327211
-0.0363325
0.00112339
0.0898993
0.0324194
-0.0787293
0.00208984
0.112782
0.00239421
-0.096216
0.0388267
0.092694
-0.0527417
-0.0523462
0.075121
0.0262035
-0.0564377
-0.0105304
0.223038
0.399336
0.207251
-0.48003
-0.891374
-0.25171
0.137299
-0.0732509
-0.0414961
0.076447
0.0214174
-0.0980523
0.01285
0.108787
-0.0505489
-0.0993334
0.0911101
0.0737584
-0.124169
-0.0341416
0.139401
-0.0161725
-0.139819
0.0579099
0.109988
-0.103288
-0.0860054
0.110618
0.0345647
-0.125054
-0.00715513
0.109064
-0.027138
-0.0894836
0.0545881
0.0763119
-0.0582527
-0.0400453
0.079934
0.0300931
-0.0676977
0.00156897
0.0740056
-0.00827519
-0.0513003
0.0374443
0.0500131
-0.0356767
-0.026377
0.0488683
0.0181624
-0.0504418
-0.00688049
0.0509396
-0.00583799
-0.0595876
0.0113547
0.0571638
-0.0341518
-0.0649148
0.0455965
0.050756
-0.07713
-0.0520946
0.0844604
0.0152407
-0.12017
-0.00799159
0.109793
-0.0452675
-0.135006
0.0500796
0.0947911
-0.10164
-0.0922572
0.0915547
0.0312087
-0.117411
0.000138976
0.109097
-0.0302587
-0.0682145
0.101619
0.0975634
-0.0814066
-0.0461564
0.127718
0.0668543
-0.101345
-0.0298279
0.131444
0.041754
-0.102408
0.00209578
0.121759
-0.00705666
-0.101025
0.0573839
0.128791
-0.106302
0.122492
0.539089
0.292505
-0.56627
-0.96986
-0.225376
0.097903
-0.115184
0.0348215
0.0838669
-0.063608
-0.0654543
0.0900641
0.0292982
-0.109302
0.0115384
0.107756
-0.0571901
-0.090657
0.0891169
0.0494314
-0.117129
-0.0136236
0.111894
-0.0387419
-0.103961
0.060498
0.0593494
-0.0996478
-0.048002
0.0814345
-0.00547369
-0.085413
0.0261394
0.0615086
-0.0451222
-0.0289969
0.0597767
0.00790223
-0.040151
0.0295996
0.035894
-0.0241478
0.0108145
0.0430526
-0.017706
-0.00977121
0.0547214
0.00571494
-0.047962
0.0313741
0.054737
-0.0468423
-0.0309518
0.0685247
0.00675267
-0.0739651
0.0258587
0.0664708
-0.0593176
-0.0445972
0.0791415
0.00815417
-0.0930517
0.015283
0.0721273
-0.0564321
-0.0728375
0.047096
0.0320039
-0.0624809
-0.0367765
0.0218081
-0.00113786
-0.0310221
-0.0247128
-0.00500539
0.00487666
-0.00231512
0.0125915
0.049115
0.0205675
-0.0254146
0.043044
0.0868591
-0.036312
-0.0803781
0.0744378
0.0993161
-0.0762165
-0.0651486
0.0977131
0.0471471
-0.0872411
-0.00556986
0.087728
-0.00598716
-0.0519682
0.0541302
-0.00890832
0.227661
0.659655
0.383417
-0.634171
-1.12254
-0.441767
0.036231
0.0750454
0.0406624
-0.125726
0.00418706
0.132852
-0.0535755
-0.127856
0.0994323
0.0995877
-0.143066
-0.0570549
0.168949
-0.00354921
-0.174859
0.0616822
0.148545
-0.116787
-0.113032
0.145268
0.0535511
-0.165264
-0.0175563
0.135038
-0.044572
-0.133455
0.0539728
0.0912589
-0.071837
-0.0588329
0.0851415
0.0457369
-0.0739649
-0.011251
0.0846173
0.0129501
-0.0633836
0.0130335
0.069011
-0.0109562
-0.046099
0.0271423
0.0459083
-0.0259396
-0.033357
0.0350774
0.0263276
-0.0451584
-0.0261521
0.0556896
0.0120775
-0.0771046
0.00371556
0.0807711
-0.0409747
-0.0987779
0.0592547
0.0737772
-0.11571
-0.0741715
0.123227
0.017415
-0.17267
-0.0137423
0.142303
-0.056692
-0.158099
0.0499167
0.0821358
-0.114846
-0.0699344
0.105083
0.0176908
-0.0844677
0.0716191
0.137513
-0.0502628
-0.0950477
0.0942806
0.121019
-0.0666377
-0.0906748
0.0965472
0.114358
-0.065757
-0.067366
0.105673
0.0721891
-0.0899984
-0.0133604
0.131563
0.00479271
-0.0788528
0.00417623
0.406311
0.836714
0.466231
-0.702008
-1.30834
-0.474177
0.136192
0.0159902
-0.0367835
-0.0299508
0.0581206
0.00289451
-0.0688566
0.0246777
0.0626914
-0.0588391
-0.0485168
0.081358
0.0160868
-0.097868
0.0216823
0.0947595
-0.0641897
-0.0761352
0.0911023
0.0378965
-0.114732
-0.00782661
0.101956
-0.047842
-0.114996
0.0458868
0.0614179
-0.0923008
-0.0438706
0.0975218
0.00862259
-0.084568
0.0433722
0.0863637
-0.0554012
-0.0352987
0.0887058
0.0197299
-0.0583752
0.0401299
0.0622437
-0.0484195
-0.0146123
0.0763073
-0.00361309
-0.0626971
0.0426138
0.0644839
-0.0564792
-0.0332632
0.0765376
0.00522838
-0.0745902
0.0232727
0.0617047
-0.0522907
-0.049056
0.0543047
0.0103592
-0.0753305
-0.0201389
0.0479717
-0.000132349
-0.0640082
-0.0384556
0.023939
0.0174016
-0.0649758
-0.0681771
0.0265121
0.0300075
-0.0304095
0.0308756
0.0874576
-0.00682338
-0.0160868
0.110045
0.0405964
-0.129776
-0.0122495
0.169405
0.0109223
-0.150099
0.0276697
0.140614
-0.041392
-0.0969533
0.0759066
0.0851209
-0.0691193
-0.0303036
0.0874975
0.0355357
-0.143682
0.394925
1.05821
0.560519
-0.786159
-1.39365
-0.339241
0.186612
-0.157789
-0.008831
0.138883
-0.0321981
-0.142153
0.080191
0.117342
-0.133209
-0.0810004
0.167789
0.0240283
-0.183234
0.0435417
0.170904
-0.107784
-0.1337
0.154678
0.0755203
-0.176874
-0.0111174
0.168276
-0.0554722
-0.156658
0.0669456
0.0852657
-0.114715
-0.0733949
0.0950043
0.0332781
-0.0790152
0.00325621
0.0820276
0.00445299
-0.0509273
0.0209039
0.0641377
-0.00016287
-0.044438
0.00961681
0.052886
0.00134018
-0.0378088
0.00934885
0.045038
-0.00756563
-0.0447545
0.0230747
0.0471967
-0.0445366
-0.0408366
0.0700122
0.0183962
-0.104713
0.00154634
0.100511
-0.0689244
-0.126659
0.0868254
0.0810181
-0.161528
-0.0919267
0.146216
0.0190143
-0.181827
-0.0271802
0.102955
-0.073546
-0.126379
0.0517392
0.0528311
-0.0546273
0.0518076
0.150347
-0.00670713
-0.113497
0.0375628
0.134585
-0.00389738
-0.116245
0.0101458
0.143173
0.0338208
-0.0929034
0.0190956
0.121923
-0.0105483
-0.0778716
0.0822226
0.0872477
-0.0733182
-0.013794
0.134747
-0.124671
0.333249
1.19647
0.681255
-0.861695
-1.50667
-0.497507
0.0884428
-0.0150585
0.0551271
-0.0455509
-0.0416832
0.0613018
0.0260122
-0.0832286
-0.00695882
0.0919232
-0.0298793
-0.0981547
0.0635628
0.0881731
-0.098193
-0.0560531
0.13005
0.0137562
-0.143182
0.0306058
0.132882
-0.0772243
-0.115797
0.101757
0.0651937
-0.153468
-0.0759831
0.114139
-0.00133949
-0.137679
0.0358579
0.134045
-0.0616107
-0.0889219
0.119439
0.0766676
-0.112206
-0.00791481
0.130479
-0.00745753
-0.0752043
0.0657701
0.0605665
-0.063074
-0.00383249
0.0873178
-0.00876672
-0.064766
0.0517028
0.0642264
-0.0606308
-0.0357174
0.0734524
0.0103649
-0.079459
0.00120669
0.0589116
-0.0387217
-0.0808463
0.0222125
0.0633849
-0.0516663
-0.112221
0.00992838
0.085875
-0.0653205
-0.157491
-0.00193326
0.0744343
-0.0459259
-0.011301
0.143853
0.0605276
-0.054036
0.090521
0.113988
-0.135198
-0.122806
0.185096
0.142479
-0.165117
-0.0935109
0.163849
0.0572381
-0.14031
-0.00124864
0.148968
-0.0104268
-0.0979493
0.0629511
0.0880063
-0.0741178
-0.01437
-0.0279686
0.517874
1.39374
0.802718
-0.924433
-1.68095
-0.644043
0.114282
0.077236
0.00182293
-0.12386
0.0496908
0.107317
-0.098945
-0.0864306
0.132569
0.0384555
-0.159647
0.0204662
0.160036
-0.0821745
-0.132545
0.140578
0.0851087
-0.171565
-0.0117848
0.17712
-0.0585402
-0.150234
0.112119
0.0972326
-0.154518
-0.0658768
0.114221
-0.0274104
-0.137196
0.0273668
0.088573
-0.0402549
-0.0317232
0.0701207
0.0349913
-0.0346356
-0.00336084
0.0365013
0.0257169
0.000652245
-0.0199489
-0.0001608
0.040157
0.023417
-0.0333083
-0.0113101
0.0587855
0.00937006
-0.0601249
0.0217136
0.0630838
-0.0603728
-0.0585012
0.0816821
0.00123135
-0.136535
0.0153384
0.109953
-0.108151
-0.15437
0.100262
0.0950841
-0.150353
-0.110421
0.071505
-0.0223253
-0.151312
-0.0416565
0.0492395
0.0172452
0.0817424
0.15206
0.0224053
-0.107869
-0.020808
0.105926
0.0587042
-0.0921471
-0.0938552
0.0947452
0.153164
-0.0329869
-0.0920798
0.0881956
0.109358
-0.0679353
-0.0237378
0.126892
0.0188017
-0.0852455
0.0645331
0.0683188
-0.0522772
-0.146812
0.657596
1.67103
0.915986
-1.0016
-1.80603
-0.518704
0.219207
-0.124718
-0.0305079
0.0998745
0.00936624
-0.118691
0.0210085
0.116783
-0.0636576
-0.114171
0.0973331
0.091304
-0.135698
-0.0529873
0.1667
0.00726087
-0.169906
0.0568328
0.16151
-0.110492
-0.128353
0.149217
0.0799671
-0.169825
-0.0351214
0.161819
-0.0385427
-0.206967
-0.00125879
0.127606
-0.0737262
-0.125863
0.119718
0.120683
-0.126277
-0.0529129
0.180664
0.0401468
-0.147654
0.0321431
0.144756
-0.0290696
-0.0653091
0.0811817
0.0545995
-0.0586921
0.0110981
0.0863332
-0.011543
-0.0615829
0.0500104
0.062223
-0.0689685
-0.0550367
0.0647307
0.0137862
-0.107127
-0.0283615
0.107459
-0.00420939
-0.171951
-0.0455542
0.145617
-0.0146922
-0.242892
-0.0990931
0.086773
-0.0291927
-0.0481691
0.180644
0.169157
-0.0427419
0.0426157
0.153287
-0.109751
-0.225104
0.137306
0.279261
-0.0826104
-0.207381
0.0887045
0.141922
-0.0994047
-0.0894238
0.131093
0.0842779
-0.0996554
-0.0132806
0.124233
-0.0201086
-0.0930456
0.0558465
0.0844376
-0.245137
0.634757
1.93551
1.06166
-1.07897
-1.8951
-0.549312
0.176037
-0.112854
0.0322252
0.0603879
-0.0572132
-0.05394
0.0811836
0.0219713
-0.107895
0.0131643
0.112166
-0.0632741
-0.101833
0.112827
0.0690105
-0.1459
-0.00230273
0.168887
-0.0609084
-0.144311
0.127056
0.0927132
-0.17257
-0.020391
0.189855
-0.0498125
-0.188302
0.0635353
0.0797187
-0.163989
-0.0828833
0.13992
0.0283357
-0.0988044
0.0604992
0.110222
-0.049795
-0.0539186
0.0565045
0.0394439
-0.0084846
0.0111904
-0.000805139
-0.0141733
0.0441965
0.0507368
-0.0359329
-0.0202526
0.0797188
0.00890667
-0.090229
0.020007
0.0569454
-0.0980846
-0.0664933
0.0886095
-0.0351302
-0.17855
0.0185397
0.142936
-0.0646388
-0.163512
-0.00730524
0.00825257
-0.151858
-0.165505
-0.0134399
0.121159
0.202719
0.182102
0.0258822
-0.104187
-0.0683006
0.0434069
0.0864331
-0.0355764
-0.185256
-0.029916
0.243406
0.125699
-0.152253
-0.043044
0.183582
0.0355583
-0.114655
0.0817017
0.14118
-0.0830908
-0.0422642
0.118312
-0.0050533
-0.0868786
0.0834191
-0.158009
0.673785
2.15693
1.23252
-1.14034
-2.05689
-0.774437
0.129385
0.0725897
0.0236191
-0.139615
0.0238642
0.133802
-0.0755859
-0.128881
0.112711
0.0991066
-0.15375
-0.0597426
0.183763
0.00554209
-0.193828
0.0621999
0.187812
-0.117288
-0.138086
0.180413
0.0806543
-0.206168
-0.0156949
0.200357
-0.0441038
-0.166361
0.0940591
0.121118
-0.167381
-0.191631
0.0589038
0.0817645
-0.114857
-0.0505657
0.180622
0.0620726
-0.165944
0.0164051
0.211128
-0.0142952
-0.150165
0.0732336
0.14317
-0.030262
-0.0392344
0.0844752
0.0522431
-0.0406106
0.0161911
0.0801088
-0.0193618
-0.0782866
0.033502
0.0493453
-0.0981631
-0.0797954
0.106875
0.0498966
-0.198576
-0.126975
0.175784
0.0819593
-0.288771
-0.274668
-0.00403176
0.00410214
-0.0217225
0.231057
0.307324
0.0261532
-0.0204383
0.126964
-0.085102
-0.300618
0.0491421
0.395284
0.103458
-0.240534
-0.0736878
0.125385
-0.0132526
-0.115573
0.0463025
0.145197
-0.00914972
-0.0812579
0.0770252
0.0577142
-0.08909
-0.0114878
0.0783915
-0.0461769
-0.0344447
-0.166367
0.899282
2.50104
1.39751
-1.20946
-2.17531
-0.699972
0.212603
-0.0569566
-0.0195975
0.00432621
0.032584
-0.0237814
-0.0460627
0.0376285
0.0428496
-0.0661672
-0.0390813
0.0897576
0.0189577
-0.115904
0.0215402
0.135666
-0.0719537
-0.118264
0.141644
0.0889811
-0.183076
-0.0157058
0.202793
-0.0681662
-0.187272
0.161947
0.164453
-0.217528
-0.132319
0.169947
-0.0442381
-0.265723
0.0499326
0.227126
-0.0805633
-0.120572
0.177981
0.104511
-0.147897
-0.0490331
0.110936
0.0352314
-0.0201899
0.030097
0.0106993
-0.0149888
0.0686448
0.0724598
-0.0608349
-0.0318978
0.0837392
-0.0354026
-0.13112
0.0167989
0.0241376
-0.16014
-0.0749919
0.153842
0.0581558
-0.162927
-0.115423
-0.0142826
-0.167133
-0.330777
-0.115199
0.290122
0.458629
0.281467
-0.00948793
-0.143922
-0.106198
-0.0241306
0.0675555
0.0103398
-0.26156
-0.2329
0.255375
0.36944
-0.0790772
-0.208199
0.130643
0.179411
-0.107061
-0.0313642
0.208098
0.00428046
-0.139603
0.0917128
0.101596
-0.107731
-0.0284462
0.0763759
0.00454032
-0.318829
0.997798
2.86674
1.57613
-1.2862
-2.26716
-0.63351
0.228484
-0.170522
0.0237735
0.117001
-0.0613848
-0.120249
0.0971937
0.0917367
-0.143362
-0.058043
0.174109
0.00658775
-0.188227
0.0541642
0.18323
-0.118044
-0.150916
0.18583
0.0979856
-0.210074
0.00246655
0.224548
-0.0867838
-0.191706
0.146556
0.132239
-0.159636
-0.0293583
0.186415
-0.0453963
-0.275414
-0.117381
0.0697938
0.00275243
-0.0883718
0.0739069
0.194337
-0.0342694
-0.165402
0.110805
0.217965
-0.0638582
-0.124538
0.105882
0.138997
-0.00280124
-0.0134382
0.0846451
0.0552763
-0.0496883
-0.0136427
0.0500813
-0.0535616
-0.107043
0.05661
0.0691031
-0.202761
-0.218108
0.151047
0.197325
-0.281717
-0.557572
-0.294294
0.0473767
0.188245
0.37185
0.455591
0.128982
-0.0982497
0.0184461
-0.10258
-0.343415
-0.039719
0.480788
0.38386
-0.113703
-0.244902
-0.0618898
-0.00185972
-0.0728022
-0.0359391
0.141238
0.136706
-0.0674759
-0.0411627
0.0944353
-0.00822525
-0.079749
0.0356747
0.0114952
-0.0690501
-0.0193286
0.0778695
-0.311608
1.06358
3.22896
1.79699
-1.34325
-2.41685
-0.85147
0.188499
0.0160212
0.0162636
-0.0852504
0.00438948
0.0788433
-0.0240656
-0.0881146
0.0334335
0.0857677
-0.0534178
-0.0899044
0.0746904
0.0908372
-0.103968
-0.0808925
0.142113
0.0556605
-0.180941
0.00802989
0.220371
-0.066765
-0.198726
0.151003
0.153423
-0.217179
-0.0679605
0.309116
0.0248516
-0.333221
-0.01607
0.187782
-0.224557
-0.282706
0.256152
0.26216
-0.225301
-0.0940798
0.288798
0.0423936
-0.234607
-0.0255937
0.15253
0.0516001
0.00303807
0.0588556
0.00940506
-0.0198572
0.0907225
0.047178
-0.124624
-0.0560934
0.0479655
-0.121663
-0.148561
0.138023
0.199716
-0.0971522
-0.231352
-0.132171
-0.304502
-0.566653
-0.123952
0.658764
0.881216
0.431726
-0.124461
-0.286294
-0.152988
-0.0613976
0.00880042
-0.00258832
-0.357411
-0.527167
0.151609
0.672313
0.19361
-0.292559
-0.0782765
0.23718
0.0515899
-0.102147
0.149781
0.107535
-0.170594
0.00621316
0.182375
-0.0572739
-0.10346
0.0657944
0.01618
-0.102151
0.0462643
-0.269057
1.22237
3.63239
2.02698
-1.40249
-2.5389
-0.885603
0.221567
0.00780046
-0.0197273
-0.0769595
0.0594882
0.0549631
-0.0995384
-0.0373147
0.124005
-0.00530314
-0.144838
0.052534
0.143905
-0.1057
-0.125862
0.161654
0.0822518
-0.208442
-0.00983182
0.234873
-0.0729166
-0.185222
0.195722
0.127297
-0.253953
-0.0328934
0.257167
-0.0497656
-0.169162
0.218335
0.149192
-0.331501
-0.310128
-0.0127134
0.00414034
-0.0738322
0.0284963
0.227261
0.162982
-0.135003
-0.118643
0.225153
0.21464
-0.082066
-0.0821429
0.130631
0.154437
0.00594725
-0.0450291
0.0546583
0.0293535
-0.102013
-0.0553976
0.00643235
-0.210883
-0.319039
0.0424265
0.248961
-0.314234
-1.04741
-0.81852
0.27565
0.817855
0.674903
0.52436
0.172289
-0.209089
-0.166143
-0.174299
-0.337276
-0.0571076
0.568838
0.718631
0.23094
-0.285606
-0.444064
-0.231452
-0.0836329
-0.0786068
0.150746
0.321506
0.039356
-0.184279
0.0415115
0.118581
-0.078969
-0.0648492
0.0294914
-0.0215607
-0.0715422
-0.0085904
0.0014347
0.0319669
-0.3775
1.45383
4.14968
2.26735
-1.47568
-2.5809
-0.723888
0.23604
-0.180271
0.0418238
0.108029
-0.0633739
-0.110193
0.0865217
0.0881517
-0.116549
-0.0735367
0.131291
0.0487956
-0.151147
-0.0256009
0.161834
-0.000357326
-0.176158
0.0331592
0.18605
-0.0905584
-0.181425
0.17834
0.172885
-0.210284
-0.08187
0.24837
-0.000541173
-0.235335
0.134777
0.307644
-0.189677
-0.351259
0.105894
0.121168
-0.401031
-0.189845
0.53661
0.229671
-0.393161
-0.0262999
0.34682
-0.0685404
-0.310726
-0.00960275
0.194806
0.0930648
0.0396259
0.0434166
-0.0601733
-0.0510239
0.0949161
-0.00182947
-0.124736
0.121788
0.29947
-0.034991
-0.401606
-0.476555
-0.695255
-0.691448
0.413864
1.43929
1.30016
0.387305
-0.465765
-0.597691
-0.200734
-0.0265166
-0.0826839
-0.131814
-0.534766
-0.948221
-0.104089
1.02821
0.709829
-0.0975
-0.366944
-0.012327
0.333393
0.0686437
-0.0330525
0.0754587
-0.14077
-0.071591
0.20554
0.0413899
-0.125226
0.0167305
0.0373041
-0.105992
-0.0482322
0.0422251
0.0811505
-0.451606
1.56918
4.62398
2.55192
-1.52889
-2.73312
-0.895947
0.230725
-0.0604752
0.0290696
-0.0113937
-0.0327278
0.00874041
0.0453238
-0.0327022
-0.0641742
0.0548181
0.0604637
-0.0945783
-0.0586408
0.129319
0.03139
-0.163898
0.0137852
0.190009
-0.0820894
-0.197742
0.168413
0.161601
-0.23202
-0.00477395
0.325906
-0.116051
-0.3123
0.227232
0.230484
-0.27702
0.0065095
0.500643
-0.109753
-0.688712
-0.181777
0.0734156
-0.203663
-0.119455
0.239763
0.393783
0.11171
-0.203102
-0.00947519
0.382239
0.302152
-0.0299234
-0.138828
0.0103997
0.105123
-0.0153274
-0.105351
-0.0694761
-0.266295
-0.520477
-0.280129
0.066093
-0.540449
-1.66667
-1.06747
1.25389
1.97631
0.917552
0.260341
0.0443651
-0.286925
-0.305283
-0.233173
-0.232378
0.105605
0.739873
1.0458
0.730446
-0.0665288
-0.977868
-0.820193
-0.376326
-0.314654
0.319582
0.753322
0.203916
-0.355788
-0.101795
0.258601
0.030706
-0.184569
-0.0314862
0.0320645
-0.0893759
-0.0821096
0.00510667
0.0176243
-0.0579279
0.0738861
-0.385598
1.80995
5.18827
2.86651
-1.57058
-2.87629
-1.03516
0.276515
0.042556
-0.0519401
-0.107956
0.0993234
0.0788053
-0.136364
-0.0543685
0.155933
0.01306
-0.179248
0.0208213
0.172597
-0.0682731
-0.170483
0.0998923
0.158035
-0.129127
-0.142215
0.163411
0.106415
-0.222355
-0.046393
0.296267
0.00699891
-0.23418
0.1059
0.188757
-0.125914
-0.0670703
0.251277
0.0676299
-0.392298
-0.239635
0.23478
0.0856935
-0.569168
-0.0488238
0.890185
0.190613
-0.498948
0.0750683
0.332407
-0.197194
-0.38768
-0.0914302
-0.0590867
-0.216238
-0.0238098
0.167964
0.0795412
0.135622
0.264534
-0.148583
-0.801473
-1.12512
-1.00822
0.123266
1.98441
2.15823
0.847961
-0.426795
-1.18936
-0.976732
-0.16541
0.0772615
-0.289659
-0.457173
-0.779617
-1.38831
-0.500627
1.38779
1.47669
0.674681
-0.453898
-0.926988
0.545363
0.852706
-0.24964
-0.346259
-0.196084
-0.072283
0.240083
0.137439
-0.0803868
0.00130496
0.00878689
-0.124916
-0.0733887
0.00982988
0.0153676
-0.00553666
0.0999261
-0.501417
2.06551
5.86998
3.18964
-1.63397
-2.8701
-0.8545
0.245072
-0.147347
0.0431339
0.0625687
-0.0357355
-0.0646208
0.0338155
0.0628793
-0.042106
-0.0768653
0.0370645
0.0790783
-0.0609467
-0.104486
0.0742907
0.110801
-0.105888
-0.112966
0.15795
0.110693
-0.228049
-0.0758739
0.286718
-0.0213031
-0.263976
0.279765
0.276208
-0.426692
-0.173835
0.487617
0.000550666
-0.446346
0.431569
0.730218
-0.644767
-0.991199
0.232819
0.0383753
-0.748915
-0.259986
0.529505
0.613274
0.157237
-0.0685637
0.293928
0.473698
0.039439
-0.412635
-0.279914
0.0560452
-0.107145
-0.547711
-0.515449
-0.0411725
-0.463198
-1.34719
0.143903
3.02471
2.63554
0.351459
-0.393213
-0.0156042
0.0430205
-0.138775
-0.166346
0.042324
0.527508
1.05292
1.33724
1.04941
0.17292
-1.59769
-1.71147
-1.08103
-1.3295
0.589006
2.06441
0.497184
-0.761643
-0.346764
0.439649
0.348174
-0.264097
-0.238904
0.0401798
-0.0546947
-0.180576
-0.054794
0.0576845
-0.0413536
-0.0427777
0.0862962
0.186496
-0.663915
2.27536
6.61144
3.5797
-1.6855
-2.94777
-0.89012
0.223548
-0.13321
0.0879701
0.0395889
-0.102005
-0.0211816
0.125036
-0.0145897
-0.148564
0.0535141
0.143675
-0.11442
-0.144635
0.143688
0.104082
-0.187419
-0.0745278
0.208271
0.0461709
-0.208576
-0.00407292
0.219141
-0.0853604
-0.253973
0.183015
0.265054
-0.179122
-0.0727886
0.239612
0.0294716
-0.0533703
0.138653
0.0195283
-0.414557
-0.452352
0.0764106
0.515558
0.202723
-0.74496
-0.0261545
1.09323
0.315922
-0.0912194
0.799012
0.786731
-0.572066
-1.5215
-1.04953
-0.201205
0.139911
-0.0266621
-0.515254
-1.27443
-1.52022
-0.570764
1.74554
2.85329
0.429346
-1.63277
-1.93339
-1.751
-0.909387
0.0192433
0.105327
-0.688113
-0.923198
-0.836976
-1.27443
-0.805494
1.5282
2.53937
2.27786
0.119825
-2.72588
0.135397
2.63487
-0.248227
-1.49153
-0.678599
-0.0484497
0.505593
0.2437
-0.0793809
0.129806
0.0524831
-0.227725
-0.140779
-0.0175839
-0.0341058
0.00810488
0.0823688
0.0180947
0.156855
-0.634428
2.48812
7.31695
4.03609
-1.70858
-3.14744
-1.1281
0.325818
0.0362596
-0.070599
-0.0936295
0.110449
0.0670717
-0.127014
-0.0473637
0.130767
0.0253887
-0.146729
-0.0264914
0.138078
-0.00395528
-0.16347
-3.47818e-06
0.162598
-0.00819996
-0.172688
0.0330046
0.223731
-0.0461786
-0.285749
0.0912492
0.269652
-0.220489
-0.0856695
0.543898
-0.00781175
-0.655278
0.165634
0.572074
-0.511751
-0.334638
1.30921
0.798685
-1.48108
-1.10677
0.891198
0.0337608
-1.72926
-1.09051
0.676215
1.34151
0.6674
-0.586772
-0.964533
-0.274712
0.720015
0.670245
0.471655
0.935854
0.99572
0.427811
1.81602
2.9711
0.907777
-0.40764
0.0144847
0.79508
0.955849
0.0710615
-0.253866
0.281393
1.00206
1.22435
1.4044
0.570168
-0.549533
-2.28131
-2.73123
-2.08207
-3.0661
0.611335
4.76192
1.38763
-1.63089
-0.843519
0.658679
1.11946
-0.171609
-0.788796
-0.0991589
0.154294
-0.307161
-0.254572
0.0791603
0.00241907
-0.0632096
0.0685823
0.170444
-0.00996103
0.0632719
-0.669805
2.96958
8.29823
4.50788
-1.74795
-3.12451
-0.996023
0.302309
-0.0878908
-0.0152512
0.0175821
0.0457647
-0.0394081
-0.0585716
0.0686657
0.0629028
-0.112382
-0.0647331
0.141292
0.02443
-0.196935
-0.00456203
0.198624
-0.0639406
-0.211967
0.106197
0.215382
-0.116112
-0.172085
0.169063
0.122749
-0.326722
-0.126908
0.391598
0.0727259
-0.173767
0.244768
0.184125
-0.0558893
0.243149
0.0217971
-0.663079
-1.01808
-0.456296
0.65208
1.19538
0.40988
-0.437939
0.176704
0.96755
0.929022
0.82494
1.02503
0.717979
0.336413
0.181305
-0.450485
-1.79524
-2.36723
-1.33708
0.915827
-0.533285
-3.8113
-3.07456
-1.32227
-0.664585
0.044537
0.289277
0.304422
-0.575999
-0.807719
-0.203071
0.0285164
-0.332055
1.30892
3.9494
4.23381
1.35586
-3.97363
-1.37641
4.31884
0.210238
-3.31235
-1.97571
-0.299017
1.31826
0.614515
-0.455604
0.342594
0.630725
-0.351772
-0.509119
0.00240617
-0.0731081
-0.0901131
0.166047
0.0695722
0.0257365
0.122344
0.162447
-1.03139
3.28595
9.42656
5.03723
-1.79471
-3.08206
-0.892096
0.188584
-0.169681
0.148656
0.0531477
-0.155237
-0.0171644
0.174064
-0.0225994
-0.182216
0.0559392
0.17425
-0.10211
-0.183204
0.116006
0.143664
-0.166187
-0.14753
0.16417
0.121565
-0.158282
-0.099445
0.196001
0.172032
-0.206809
-0.253152
0.198622
0.110176
-0.303375
0.354659
0.715377
-0.551684
-0.814153
0.534441
0.348388
-1.24786
0.620057
3.10312
0.382265
-2.70193
-1.13671
1.29697
1.04424
-0.951115
-1.02728
-0.667207
-1.65987
-2.1847
-1.00022
1.12031
1.87324
1.44733
0.353704
0.0443142
-0.624555
-0.199509
1.85659
1.62943
0.239184
-0.217311
-1.63612
-1.59557
-0.262252
0.617006
0.281586
0.0389709
-1.44193
-2.8546
-2.98376
-3.60249
-2.75594
-2.5419
1.01318
7.06595
3.29344
-2.28256
-1.65397
0.727268
2.44487
0.375945
-2.04096
-0.84674
0.917373
-0.251866
-1.01695
0.112397
0.249604
-0.156874
0.036124
0.222258
0.11567
-0.0248435
-0.00395008
0.249514
-1.1054
3.58188
10.5407
5.69173
-1.80279
-3.26378
-1.10936
0.314657
-0.00942812
-0.0225978
-0.0630141
0.0511097
0.0589253
-0.0497144
-0.0698633
0.05321
0.0884484
-0.0704063
-0.120788
0.0812349
0.123244
-0.146727
-0.148942
0.167217
0.101482
-0.234163
-0.0859609
0.266671
0.0922242
-0.223932
-0.00505853
0.26562
-0.15447
-0.522253
0.123646
0.41417
0.038233
0.300843
0.254259
-0.272864
0.359545
0.994894
-0.614313
-1.94677
-2.08042
-1.12803
1.26974
2.12561
0.75187
2.08347
2.9157
-0.395415
-2.91946
-2.15225
0.212106
2.17288
2.12
2.16462
2.07674
-0.0296964
-0.369156
1.74355
2.29797
1.47637
1.7871
1.69971
2.20552
1.37657
0.591336
1.30249
2.11997
1.82122
1.58415
4.5269
4.62918
1.95283
-1.94395
-3.27047
1.57988
0.173127
-4.4314
-3.69603
-0.843765
2.62249